# LAMMPS data file written by OVITO Pro 3.10.6

65 atoms
2 atom types

0.0 9.74 xlo xhi
0.0 9.74 ylo yhi
0.0 9.74 zlo zhi

Masses

1 238.029  # U
2 14.0067  # N

Atoms  # atomic

1 1 2.435 0.0 4.87
2 1 2.435 2.435 2.435
3 1 4.87 0.0 2.435
4 1 0.0 2.435 0.0
5 1 7.305 0.0 4.87
6 1 7.305 2.435 2.435
7 1 0.0 0.0 2.435
8 1 4.87 2.435 0.0
9 1 2.435 4.87 4.87
10 1 2.435 7.305 2.435
11 1 4.87 4.87 2.435
12 1 0.0 7.305 0.0
13 1 7.305 4.87 4.87
14 1 7.305 7.305 2.435
15 1 0.0 4.87 2.435
16 1 4.87 7.305 0.0
17 1 2.435 0.0 0.0
18 1 2.435 2.435 7.305
19 1 4.87 0.0 7.305
20 1 0.0 2.435 4.87
21 1 7.305 0.0 0.0
22 1 7.305 2.435 7.305
23 1 0.0 0.0 7.305
24 1 4.87 2.435 4.87
25 1 2.435 4.87 0.0
26 1 2.435 7.305 7.305
27 1 4.87 4.87 7.305
28 1 0.0 7.305 4.87
29 1 7.305 4.87 0.0
30 1 7.305 7.305 7.305
31 1 0.0 4.87 7.305
32 1 4.87 7.305 4.87
33 2 0.0 4.87 0.0
34 2 0.0 2.435 2.435
35 2 2.435 4.87 2.435
36 2 2.435 2.435 0.0
37 2 4.87 4.87 0.0
38 2 4.87 2.435 2.435
39 2 7.305 4.87 2.435
40 2 7.305 2.435 0.0
41 2 0.0 0.0 0.0
42 2 0.0 7.305 2.435
43 2 2.435 0.0 2.435
44 2 2.435 7.305 0.0
45 2 4.87 0.0 0.0
46 2 4.87 7.305 2.435
47 2 7.305 0.0 2.435
48 2 7.305 7.305 0.0
49 2 0.0 4.87 4.87
50 2 0.0 2.435 7.305
51 2 2.435 4.87 7.305
52 2 2.435 2.435 4.87
53 2 4.87 4.87 4.87
54 2 4.87 2.435 7.305
55 2 7.305 4.87 7.305
56 2 7.305 2.435 4.87
57 2 0.0 0.0 4.87
58 2 0.0 7.305 7.305
59 2 2.435 0.0 7.305
60 2 2.435 7.305 4.87
61 2 4.87 0.0 4.87
62 2 4.87 7.305 7.305
63 2 7.305 0.0 7.305
64 2 7.305 7.305 4.87
65 2 1.2175 1.2175 1.2175
