BEGIN_CFG
Size
    65
 Supercell
         9.989920      0.000000      0.000000
         0.000000      9.989920      0.000000
         0.000000      0.000000      9.989920
 AtomData:  id type       cartes_x      cartes_y      cartes_z           fx          fy          fz
             1    0       4.665510      0.126350      2.275670     1.262410    2.252090    0.287178
             2    0       0.131040      4.785830      1.820130    -0.638164    0.855865    1.101036
             3    0       2.536610      0.640010      4.851140    -2.308344    1.780789   -3.376158
             4    0       2.194320      2.533950      2.690460     1.968168    0.919346   -2.577772
             5    0       4.744870      3.238360      4.372300     0.218131   -1.096816    1.166293
             6    0       2.001000      3.314040      7.223390     0.881042   -1.057428    0.077727
             7    0       2.654180      0.436710      9.674350     3.367769   -2.272676    7.490853
             8    0       4.823860      2.984660      9.648850    -2.527573    0.827338   -0.649859
             9    0       4.236020      0.403720      7.502330     4.468789    4.078554    2.295218
            10    0       9.978990      0.576190      7.788000    -7.144074   -2.062815   -3.326845
            11    0       4.486780      5.484040      2.095690     0.801401    0.711959    0.472824
            12    0       2.200340      8.253620      2.250510     0.100274   -1.194468    0.022251
            13    0       1.889360      5.548160      4.397120    -0.110098   -4.889830    1.009107
            14    0       4.859400      8.269810      4.831790     0.109845   -4.233260   -0.171284
            15    0       2.050020      8.343610      7.341320    -2.459258   -5.468093    1.668229
            16    0       4.666900      5.291300      6.951400     1.651677    0.155870   -0.591644
            17    0       2.413820      5.717070      9.529840    -0.814766   -0.900915    0.469146
            18    0       4.603650      7.641870      9.623470     0.864416    0.576023   -0.050806
            19    0       7.376210      2.994060      1.920600    -0.977414    0.202595    1.272449
            20    0       9.437400      0.562380      2.242250    -0.699512   -4.583969   -1.214942
            21    0       9.894600      2.649250      4.651700    -1.835265    2.018084    0.708055
            22    0       7.065800      0.360010      4.673430     0.447236    1.064762    0.310699
            23    0       7.361980      2.723380      6.747110    -1.349026   -0.688020    2.225588
            24    0       9.709470      2.883190      9.496350    -0.422474    0.251679    0.297144
            25    0       6.766190      0.359800      9.485580     5.125527    0.384170    0.994048
            26    0       9.756840      7.640140      0.116840    -0.434729    1.806255   -1.209323
            27    0       7.195980      7.499770      2.121440    -2.110412    0.121276   -0.551311
            28    0       7.464650      5.462180      4.679270    -3.135483   -0.234618   -0.955350
            29    0       9.461740      8.253800      4.838030     0.870955    0.181070   -0.445492
            30    0       9.369180      5.820510      7.345210     0.844073   -0.923969   -0.707562
            31    0       7.402340      5.490880      9.302060    -2.214168   -1.366987    1.377855
            32    0       7.201570      8.175540      7.383940     1.329119   -0.106611   -0.474943
            33    1       2.096650      3.620050      0.179170    -0.236591   -0.277410   -0.201631
            34    1       4.859250      0.072510      0.074590    -1.540313    0.079737   -0.599204
            35    1       2.125510      0.406270      2.007790    -0.617195    0.565654    0.171921
            36    1       2.108860      2.892570      4.975050     1.590102    1.364342    0.511178
            37    1       4.841950      2.894210      6.998770    -0.661455    0.325774    0.293712
            38    1       1.753350      1.087990      8.257950     1.267319    4.429883   -5.545864
            39    1       1.969570      6.128640      2.090560     0.637913   -0.568570   -0.440056
            40    1       2.032480      7.354490      4.497630     0.048200    5.982255    0.441611
            41    1       4.909300      5.801400      4.665030    -0.743351   -0.837948   -0.321745
            42    1       4.832810      7.951390      2.483080    -0.788211   -0.784066   -1.213739
            43    1       3.267020      9.283850      6.124670     1.030252   -1.346457   -2.296191
            44    1       2.375560      5.339620      6.949030    -0.642607    1.386807   -0.007786
            45    1       9.926800      8.139290      7.162250    -1.434821    0.279343    0.922905
            46    1       2.108830      8.156790      9.560000     0.113090   -0.508167    1.696912
            47    1       9.961580      2.451940      2.189780    -0.174778    3.180203   -0.639841
            48    1       7.004290      0.705360      2.044750    -0.051472   -0.820671    0.222691
            49    1       9.272970      0.532320      9.896020     0.375361   -0.670605    0.395212
            50    1       4.985040      3.184740      1.904430     0.109482   -0.263904    0.614154
            51    1       7.563410      3.184220      4.498270    -0.862085   -0.701122   -0.694853
            52    1       4.929420      0.649430      4.638790    -0.873893    1.120925    0.005940
            53    1       9.290580      0.750830      5.146360     0.158204   -1.316706   -0.003252
            54    1       6.846770      0.502810      7.202230     0.102700   -0.584982   -0.600536
            55    1       9.639040      3.777360      7.037340     1.006093   -2.019647   -0.184203
            56    1       6.850090      2.810780      9.433400     2.416788    0.076287    0.088651
            57    1       7.660060      5.244630      2.132330    -0.474344   -0.112965   -0.237408
            58    1       9.367330      6.082730      4.535620     2.716496   -0.521586    0.950095
            59    1       9.025500      8.076580      2.568440     2.699478    1.254550   -0.385815
            60    1       7.106850      4.697780      7.036360    -0.333271    2.759534   -0.306055
            61    1       7.098640      7.778820      5.017100     0.927450    0.971365   -1.123329
            62    1       5.235530      7.552090      7.119710    -1.608786   -0.062095    0.567167
            63    1       9.565800      5.159280      9.736430     1.428708    1.279446   -0.709987
            64    1       4.870690      5.444880      9.288610    -0.064824   -1.144818    0.690381
            65    1       7.276760      7.782780      9.645590    -0.649708    0.378362    0.996557
 Energy
       -770.178220370000
 PlusStress:  xx          yy          zz          yz          xz          xy
        24.57504    35.35359     7.68190    -7.99801    13.28463    10.94509
 Feature   EFS_by	VASP
END_CFG

BEGIN_CFG
Size
    65
 Supercell
        10.110800      0.000000      0.000000
         0.000000     10.110800      0.000000
         0.000000      0.000000     10.110800
 AtomData:  id type       cartes_x      cartes_y      cartes_z           fx          fy          fz
             1    0      10.028430      0.038660      1.713790    -0.512195   -0.668450    1.760128
             2    0       2.224540      0.981790     10.039670    -1.607722    0.505175   -0.227985
             3    0       2.291910      2.996970      2.572750     0.954596   -0.313726   -0.377502
             4    0       2.458980     10.022960      4.159990    -1.505798   -0.125311    3.247912
             5    0       4.510740      2.421860      4.854080     0.628625    2.033505   -1.770857
             6    0       2.068150      3.396140      7.482820     1.087496   -3.503427   -0.381572
             7    0       4.364100      0.840340      7.461850     0.048231   -1.949690   -1.615779
             8    0       2.719150      7.987870      2.090100    -2.419134   -0.511373   -0.759431
             9    0       4.802550      5.248100      2.195350     0.877705    0.908448    1.331587
            10    0       1.557180      5.263100     10.001370     2.477301    0.855617   -0.415722
            11    0       4.849110      8.274780      4.233670    -0.387999   -3.777885    1.739698
            12    0       1.953730      5.753200      5.097210     0.040039   -1.787272   -2.021320
            13    0       2.034150      7.720190      7.183620    -1.398844    0.923526   -1.746380
            14    0       3.953210      8.549660      9.341060     4.051632   -0.833341    0.435189
            15    0       4.398740      5.568880      7.679220    -0.121661   -0.832991   -3.861641
            16    0      10.010510      8.152190      9.290050     0.282653    0.143113    0.556536
            17    0       4.876120      9.981090      2.130470     1.635046    2.640151   -2.009609
            18    0       9.867640      2.219520     10.075210    -0.547980    3.829840   -0.023485
            19    0       7.303880      2.797280      2.222360    -0.789501   -0.948214    0.840577
            20    0       4.987660      3.042850      0.162960    -1.275836   -2.002968   -0.578089
            21    0       7.309850      0.281600      4.452600     0.003080    0.934595    1.206087
            22    0       9.888460      2.443580      4.803370     0.290688    2.181259   -0.050800
            23    0       7.113830      3.085820      7.348550    -0.318266   -2.014118    0.192507
            24    0       9.683560      0.712130      6.628540     0.045744   -1.649579    1.402139
            25    0       7.088550      0.077570      9.849050    -0.677268    1.861969   -1.326724
            26    0       9.835670      5.127570      2.309000     0.004341    3.565475    0.194655
            27    0       7.854350      7.729440      2.307620    -0.349100    0.044612   -0.000795
            28    0       9.497080      7.762270      4.645910     0.832061    0.541681   -0.742488
            29    0       7.331670      5.421110      4.821300    -0.407874   -2.019763   -0.579915
            30    0       7.072610      7.757720      7.287560    -1.011471    2.020405   -0.548033
            31    0       9.336920      5.204950      7.345960     1.433181   -0.931276   -0.932800
            32    0       6.826930      5.539240      9.908610     4.275968    0.801853    1.458082
            33    1       2.516150      3.313570      0.066120    -0.117182   -0.848651    0.330860
            34    1       2.680150      0.414790      2.132630    -1.798831    0.562106   -1.178495
            35    1       4.806440      0.270130      4.508190     0.646585    1.037849    0.760290
            36    1       0.447290      0.374640      4.072310    -2.040424    0.092137   -0.255094
            37    1       9.989090      3.190590      2.664550    -0.294255   -2.729729   -0.589105
            38    1       4.733830      2.288650      2.528760     0.411705    1.786624   -0.932119
            39    1       2.045230      3.268730      5.167730     0.290676    0.408986   -0.468085
            40    1       4.726800      2.858990      7.178300     0.369250    2.050896    1.011189
            41    1       9.947570      2.682000      7.232820    -0.474559    1.088959    1.138050
            42    1       4.331030      0.690180      9.659670     1.894384    0.666714    1.704612
            43    1       2.413850      5.996930      1.994060     0.457120   -2.544207    0.462657
            44    1       0.288780      7.717480      2.035250    -0.767714    1.338850   -0.298626
            45    1       1.580880      8.085240      4.764880     0.544978   -0.972795    0.364103
            46    1       4.285690      7.664040      7.052130     0.186602    0.847575    0.067853
            47    1       1.590340      5.402710      7.360200     0.386470    0.974366    0.546583
            48    1       2.094000      9.684750      8.486040     0.131827    0.940971   -2.219513
            49    1       2.204330      7.707430      9.469030    -2.212010   -4.245542    2.428392
            50    1       4.857590      5.184120      9.570700    -1.988941   -0.043416    2.230237
            51    1       7.154930      0.475480      2.167130     0.737281   -0.870279   -0.092571
            52    1       6.736760      3.055290      4.538140     0.777446   -0.548865    0.815788
            53    1       9.556260      0.438080      9.291490    -0.488646   -2.531470   -1.069294
            54    1       7.538340      2.514580      9.729240    -0.470523    0.363419    0.583326
            55    1       6.374850      0.374920      7.358710     1.258043    0.124387    0.732800
            56    1       5.578550      7.701120      2.023540    -0.404088   -0.582934    0.061542
            57    1       8.114350      8.458620      0.310720     1.792844   -0.254799    0.990155
            58    1       5.389900      5.689540      4.375200    -2.003134    0.597750   -0.350710
            59    1       9.603210      4.823730      4.903680     0.159194    1.338613   -0.431684
            60    1       7.398700      4.960620      2.480740     0.392049    1.219476   -0.390024
            61    1       9.366790      7.356630      6.859230     0.220552    1.055201    0.931374
            62    1       6.688960      8.320560      5.269660     1.410446   -0.747155   -1.310684
            63    1       9.685610      5.489950      9.491040    -1.674979    0.476336    0.774568
            64    1       6.441150      7.540210      9.187280    -1.666010    0.095395   -0.042960
            65    1       7.130140      5.427510      7.641190    -1.303896   -0.068608   -0.699586
 Energy
       -764.428972460000
 PlusStress:  xx          yy          zz          yz          xz          xy
       -14.57762    11.78208    -9.46548    -2.95483     5.20167    -2.27566
 Feature   EFS_by	VASP
END_CFG

BEGIN_CFG
Size
    65
 Supercell
        10.086500      0.000000      0.000000
         0.000000     10.086500      0.000000
         0.000000      0.000000     10.086500
 AtomData:  id type       cartes_x      cartes_y      cartes_z           fx          fy          fz
             1    0       4.720300      0.267110      1.869110     0.045358    0.430166    8.274975
             2    0       2.274700      0.256700      4.604180    -0.118557    1.909816    1.564880
             3    0       2.755910      3.693480      2.481810    -4.181028   -3.252927    1.976731
             4    0       4.634120      0.377330      7.164730     2.478320    0.385376    0.019747
             5    0       2.033700      2.654810      7.396420     0.270453    0.502703   -1.559352
             6    0       4.359640      2.833610      9.811250     0.890205    0.307006   -1.785377
             7    0       2.335410      0.426680      9.830010    -1.789166    2.969181    0.532644
             8    0       2.001440      8.062810      2.227930     0.512807   -1.290119   -0.169756
             9    0       4.662170      5.500390      1.980820     0.997482    1.370212    1.373581
            10    0       2.357890      5.328580      4.448100    -0.840579    0.366480    1.016716
            11    0       4.864770      7.924940      4.434280    -0.235801   -0.905757    0.838239
            12    0       2.289660      8.329690      7.045850    -0.902625   -4.236865   -2.292578
            13    0       4.567930      5.090940      6.917530    -0.105520    1.082586   -0.438466
            14    0       9.954770      5.686240      7.290430    -2.856202   -1.574405    0.360209
            15    0       4.703340      8.034550      9.769470     0.186268   -0.115999   -0.698234
            16    0       2.212810      5.246840      9.787820    -0.576947    1.047684   -0.542458
            17    0       6.769280      3.029750      2.257200     2.367108   -0.652207   -0.831118
            18    0       9.520160      0.592450      1.986010     3.627535    0.736785    1.612107
            19    0       7.264470      0.470130      0.079640    -1.530317   -0.275336   -3.676952
            20    0       9.841410      2.689600      4.429870     0.377479    1.517527    0.401375
            21    0       5.099340      2.288560      4.611950    -1.317235    2.538106    1.296179
            22    0       7.803670      0.178590      4.669630    -4.358729    0.446194    0.258532
            23    0       9.656670      0.425350      7.065090     0.637272    0.974665    1.072959
            24    0       7.111320      3.032020      7.502530     0.267871   -0.661449   -1.365251
            25    0       8.981310      2.270910      9.675110     1.662409    4.916363    0.592702
            26    0       9.383350      5.469040      1.911640     1.733677    0.489299    0.587271
            27    0       7.324990      8.208790      2.272370    -1.916182   -2.542370   -2.037126
            28    0       9.644960      8.274170      9.961510     0.783415   -0.962415   -0.499242
            29    0       9.400240      8.386900      4.626920     1.504035   -3.392176    0.208809
            30    0       7.582750      5.213850      4.615180    -4.381259    1.574475    0.661764
            31    0       6.910370      5.378410      9.809010     0.195031   -3.370803   -1.691352
            32    0       7.471870      8.336830      7.486990    -1.316654   -1.468119   -0.589350
            33    1       2.023730      3.067100      0.282820     0.580153    0.077869   -0.592630
            34    1       4.495730      2.882390      2.010450     2.270314   -1.634898   -0.288881
            35    1       4.712690      0.283320      0.040430     0.364234    1.047799   -6.961610
            36    1       9.974360      0.351720      4.474840     2.312890    2.164189    0.203626
            37    1       2.257850      0.278530      2.623840     0.075838   -0.030086   -2.915607
            38    1       2.390210      0.274820      7.242090    -1.387060    3.587586   -0.326352
            39    1       4.262560      2.671730      6.999040     1.956455    0.243554    1.182494
            40    1       2.430870      2.584670      5.050090    -1.295824    0.465626   -0.857970
            41    1      10.017260      0.458070      9.769750     0.605149   -1.853385   -0.716706
            42    1       2.120090      5.554110      2.012940     0.588097    1.150220    1.783179
            43    1       4.811440      7.950420      2.118200    -0.649297   -0.257979   -0.543890
            44    1       1.016310      6.849670      0.765180    -1.447685    0.134674   -2.430355
            45    1       2.430980      7.987050      4.645320    -0.965849   -0.173331   -1.225012
            46    1       1.802110      5.842320      6.862930     2.100621   -0.625089   -0.053294
            47    1       4.309890      7.743560      6.452450     1.695762   -0.001793    2.139224
            48    1       4.424160      6.007870      9.580460     0.074632   -2.000192   -0.373187
            49    1       2.268870      8.738080      9.051740     0.446993   -3.545552    2.626065
            50    1       9.008230      3.421250      2.070700     0.217191   -1.697255    0.339619
            51    1       7.393350      0.482260      2.178780    -1.592596    0.236416    1.709066
            52    1       7.424160      2.309740      4.498580     0.045747    1.567619    0.290605
            53    1       5.181280      0.268450      4.119900    -0.846832   -1.258926    1.135351
            54    1       6.981760      0.677000      6.921650     0.314093   -0.410762    0.696592
            55    1       8.749210      4.214980      8.959390     0.780401    1.451454    1.790919
            56    1       6.716540      2.845470      9.828520    -1.296808   -0.189442    0.394568
            57    1       9.856210      2.723970      7.473270     0.637402   -0.964677   -2.031481
            58    1       9.460880      8.140620      2.165350     1.155052    0.717016    1.449208
            59    1       7.024260      5.652830      1.980020     0.244148   -0.859021    1.178884
            60    1       7.199460      7.637210      4.432020     0.047800    0.015998    0.945575
            61    1       9.545210      5.292650      4.648630     2.613610    0.193810    0.021934
            62    1       5.113040      5.685480      4.482420    -0.892546   -0.572482    0.754528
            63    1       7.912820      5.793150      7.211360    -1.211773    0.698876   -1.472416
            64    1       9.780590      8.383220      7.836670    -0.091593   -1.238202   -1.939592
            65    1       7.224540      7.265620      9.798480     0.441357    4.696691   -0.385260
 Energy
       -764.976522860000
 PlusStress:  xx          yy          zz          yz          xz          xy
         2.60018     6.91246    11.83151    -3.44845     3.55476    -1.94566
 Feature   EFS_by	VASP
END_CFG

BEGIN_CFG
Size
    65
 Supercell
        10.470700      0.000000      0.000000
         0.000000     10.470700      0.000000
         0.000000      0.000000     10.470700
 AtomData:  id type       cartes_x      cartes_y      cartes_z           fx          fy          fz
             1    0       2.531730      2.216380      1.379180    -0.222743   -1.157114   -0.401987
             2    0      10.215770      0.663380      0.652510     1.696736   -0.062310    1.246328
             3    0       0.013160      4.394950      2.384720     0.264347    0.480845    0.969101
             4    0       3.377270      4.159640      2.836130     3.123865    1.051379   -2.044226
             5    0       2.636460      0.892650      5.238410     1.053832    1.142481   -0.086308
             6    0       2.229860      4.487690      4.932260    -0.693546   -3.397234    4.392141
             7    0       1.798810      2.774630      8.314780    -0.249841   -0.690228   -0.313460
             8    0       4.483860      3.816360      9.783910    -0.244513   -1.360243    0.392120
             9    0       4.710960      7.731220      1.881610     0.693296   -0.920314   -0.658694
            10    0      10.225420      4.895170     10.330130     1.376550    0.567975   -0.031421
            11    0       1.695420      9.383540      2.682400    -1.316134   -0.520872    3.342492
            12    0       4.213420      7.001270      5.495010     0.980555    4.137691   -0.589059
            13    0       1.955730      9.706510      6.943250     0.373846   -0.436604   -0.973864
            14    0       0.775540      7.188030      4.871010    -2.099894    0.606595   -0.119625
            15    0       3.196710      6.371370      8.634270    -3.084802   -0.105254   -0.227884
            16    0       0.300870      8.240130      9.283170    -1.487572   -1.234219    1.073481
            17    0       3.261390     10.023400      9.901080     2.111354    1.156041    2.709885
            18    0       7.149370      2.662770      1.285840     3.752702    0.056397   -0.244014
            19    0       6.000870      2.364860      4.573070    -1.371220   -2.624371    1.075328
            20    0       5.272840      0.155710      2.687150    -0.705146    0.013929   -0.802991
            21    0       9.155400      2.622460      5.296300     2.121873    1.286600    0.214904
            22    0       5.667680      4.456540      6.649950    -0.089381   -0.796466    2.867700
            23    0      10.046400      0.139170      7.309470    -3.009560   -0.174623    1.224269
            24    0       8.419380      2.948610      8.709540    -1.351215    1.062043   -0.703078
            25    0       5.314170      0.024020      7.641860     5.776837   -2.373455   -1.386689
            26    0       7.473420      9.742480     10.360990    -1.540575    1.463892   -2.815797
            27    0       7.493060      9.696450      4.352670    -0.543709   -2.886329   -1.589227
            28    0       7.160000      5.451540      3.574030     0.754962    2.815018   -0.195511
            29    0       8.669620      7.526420      2.384480     0.155252    0.135499    0.686447
            30    0       7.670080      7.564150      7.144860    -0.100355    1.082141   -1.549968
            31    0      10.041700      5.556520      6.814650     0.699942    0.067765    1.305839
            32    0       6.172770      6.386540      9.877820     4.609735   -0.018895    0.029027
            33    1       1.965850      4.386930      1.192900    -1.388799   -0.256352   -0.342724
            34    1       2.805050      0.717740      3.175390     0.215137   -0.485420   -1.668496
            35    1       0.188130      4.150680      4.673770    -1.111262    0.323523   -0.416221
            36    1       3.965760      2.556670      4.555050    -0.868436    1.166061    1.318301
            37    1      10.180790      2.992770      7.407920     0.559352   -0.139242    0.055364
            38    1       3.795260      1.002490      7.821680    -3.238572    2.717514   -0.331492
            39    1       1.790010      0.505350      8.935440    -3.699149    2.193080    0.354385
            40    1       4.516790      5.704880      0.343140    -2.946732    0.093553    0.247192
            41    1       1.573020      9.121170      0.849740    -0.698196   -0.321310   -4.662790
            42    1       2.701590      6.144510      3.944310     1.261510    2.100746   -1.691725
            43    1       2.082640      8.875660      4.735140     0.310812    1.518770   -0.473569
            44    1       0.003390      6.622910      2.698660     1.037875   -1.198740   -0.279388
            45    1      10.108920      8.496960      6.799510     0.574106   -0.403688    1.182307
            46    1       2.403130      6.898810      6.580760    -0.013336   -0.714758    0.017788
            47    1       2.372820      8.640090      8.683270     0.309821   -3.560533    0.457782
            48    1       1.025520      5.657480      8.679800     1.183105   -0.277030    0.302011
            49    1       6.709240      4.080730     10.301380    -0.790218   -0.312191   -1.585905
            50    1       8.092110      0.529740      1.359460    -0.808072    0.646018    2.672283
            51    1       7.513230      3.364780      3.803830     2.711268    0.690534   -2.143219
            52    1       5.439700      2.517970      2.136630    -3.343991   -0.844344    1.029452
            53    1       5.435670      5.422500      4.818910     0.099438   -1.483490   -1.540374
            54    1       8.043420      0.925000      5.120920    -0.321505    0.361837    0.847359
            55    1       7.429800      3.188030      6.572840    -0.286401    0.193430    0.739283
            56    1       7.840640     10.185530      8.023070    -0.761128   -1.326413   -0.800722
            57    1       8.908000      1.192210      9.736970     0.292404    0.578229   -1.487126
            58    1       5.336390      9.894010      0.593040    -0.540135   -0.433152    0.825010
            59    1       8.104090      7.894420      0.366270     1.198618   -0.751698   -0.701051
            60    1       6.446010      6.297710      1.537950     0.509709    0.849552    3.124197
            61    1       9.737170      9.175400      3.043070     0.248522    0.403974    0.065434
            62    1       6.222520      8.085100      5.376640     0.666884    0.735911    0.864542
            63    1       8.967280      6.734660      5.090520    -1.180482   -0.443277    0.160986
            64    1       9.049320      5.775970      8.900490    -1.805263    0.057212   -1.553910
            65    1       5.052770      6.844050      7.896810     1.187639   -0.046066   -1.380222
 Energy
       -746.841328570000
 PlusStress:  xx          yy          zz          yz          xz          xy
        -1.62236    12.48740    16.63542    -2.43347   -13.63853     3.88688
 Feature   EFS_by	VASP
END_CFG

