BEGIN_CFG
Size
    65
 Supercell
        10.506100      0.000000      0.000000
         0.000000     10.506100      0.000000
         0.000000      0.000000     10.506100
 AtomData:  id type       cartes_x      cartes_y      cartes_z           fx          fy          fz
             1    0       2.613180      2.493100      1.244650    -1.790773    0.353887    1.432624
             2    0       1.543120      0.431330      4.247400     0.546109    0.569257    0.032614
             3    0      10.278690      3.099310      4.587810    -0.074220    1.064709   -2.024692
             4    0       1.736090      3.252340      7.327520     0.186016    0.977818    1.092786
             5    0       4.650260      2.943550      4.975930    -2.073237    0.678516    0.015027
             6    0       4.286360     10.339740      6.316710     1.092853    1.294642    3.126577
             7    0       2.007640      0.170800      9.411330    -1.040141    1.053008   -2.175399
             8    0       1.877450      8.750340      1.567420     0.498988   -2.501478    1.554847
             9    0       2.849930      5.184260     10.172000    -0.783842    0.722189   -0.315766
            10    0       1.923580      5.422440      3.662670    -0.155528   -0.912564   -0.711300
            11    0       4.627680      7.363760      4.408100     0.430158    0.854767   -1.888811
            12    0       0.254180      8.222360      3.987600    -0.335516    0.699176    0.194582
            13    0       2.667520      7.562250      6.785920    -1.533684   -1.131382   -0.410825
            14    0      10.127700      9.671400      6.566110    -0.214169   -0.203328    1.223892
            15    0      10.443070      7.251700      8.926970     0.920236    2.469538   -0.804700
            16    0       9.522130      1.064550      1.468540     0.100167    0.269148   -2.108143
            17    0       6.218210      2.145510      0.425690     2.883034    0.125895    0.400052
            18    0       5.531840      4.840370      2.103750    -0.647410    0.507227    1.253383
            19    0       8.736070      0.384860      4.779360    -0.050354    0.515740    0.569852
            20    0       8.875670      4.465690      2.828870     0.725402    0.859525    0.592768
            21    0       5.487230      0.321420      2.697270     0.037115   -4.702375   -0.367026
            22    0       8.518380      1.926430      7.014480     0.304133    1.148122    1.165279
            23    0       9.962500      3.226050     10.085400    -0.353286    0.451744   -3.165744
            24    0       5.163940      2.983830      8.535540    -0.506432   -2.198215   -0.576883
            25    0       4.984740      8.018000      0.447170     0.281889   -0.351477    0.133529
            26    0       8.044210      7.905390      2.510490     0.208211    1.332325   -0.058482
            27    0       9.173490      6.053210      6.129920    -0.346450   -0.817011    0.734868
            28    0       6.311970      5.395850      5.770400     1.172078   -1.318338   -1.047223
            29    0       6.842410      8.376980      6.415850    -1.387214    1.116846    2.910381
            30    0       6.800120     10.131400      9.369810     0.715860   -0.626646   -0.758301
            31    0       7.405080      5.815220     10.062600     0.079514   -0.560352   -0.642470
            32    0       4.938760      6.429320      7.577840    -0.204029    2.588004   -2.965502
            33    1       4.389090      3.274560      0.558720     0.997401    1.522739   -0.685303
            34    1       2.080230      0.443980      1.084380    -0.488996   -0.519165    0.456297
            35    1       0.450730      3.124980      1.484730    -0.403572    0.069630    1.185064
            36    1       3.694510      4.468370      3.222200     1.673091   -0.958356   -0.394696
            37    1       3.772820      0.815900      4.416530    -0.605609   -0.167195    0.504412
            38    1       0.458540      1.971930      6.102060    -0.092727   -2.534242   -0.074053
            39    1       2.470810      3.842450      5.488500    -0.275064   -0.217433   -0.395271
            40    1       1.981020      3.067840      9.613440    -1.352764    0.635478    0.776364
            41    1      10.147180      0.778240      9.447570     0.827995    1.070172    0.781151
            42    1       3.513460      1.545150      8.371320    -0.359666   -0.337275   -1.268804
            43    1       2.775260      6.543820      1.353470     0.810769    0.380790   -0.877298
            44    1       1.361240      8.549900     10.135710    -0.345659    0.041755   -1.133791
            45    1       2.455080      7.550950      3.875740     0.297714    0.120374    1.410716
            46    1       0.011590      6.583640      2.824440    -0.513010   -0.735027    0.376649
            47    1       0.285900      7.434430      6.226650     0.236899   -0.536220    0.661502
            48    1       1.885420      9.423580      6.880060     0.059864    2.299084    0.436466
            49    1       2.310490      5.742990      7.897880    -0.142565    0.152448    1.189090
            50    1       7.458220      0.333490      1.524320    -0.323155    1.060268   -0.435243
            51    1       5.578590      2.100410      3.302890     1.684654    4.136175   -0.912446
            52    1       9.945370     10.317970      2.938760     0.693038   -1.779256    1.485415
            53    1       5.965510      1.061270      7.225550     0.424395    0.406465   -0.222304
            54    1       7.788570      3.406910      9.717440    -1.675858   -0.551190    0.661145
            55    1       9.890150      3.593220      7.904930     0.573695   -1.370375   -0.628885
            56    1       7.532410      7.736700      0.374050    -0.914844    2.193701   -2.236700
            57    1       7.898780      6.093790      1.792250     0.562730   -5.389588   -0.908825
            58    1       6.171060      8.496110      2.366500    -3.591255    0.752418    0.823532
            59    1       6.856120      6.069820      3.862360    -0.786126   -0.960093    0.910816
            60    1       8.227220      8.031750      5.138260     3.358224    0.520193   -1.594302
            61    1       7.186170      6.387660      7.957620    -0.127833   -0.262273   -1.730760
            62    1       4.976740      9.057430      8.778960     0.456527   -0.939516    0.267050
            63    1       8.254220      9.100060      8.272080    -0.017127    0.435889   -1.283912
            64    1       4.786320      5.570730      9.203540     0.738315   -1.888539    4.787375
            65    1       9.482540      5.653360      9.398640    -0.064962   -0.980752    1.657751
 Energy
       -747.947259150000
 PlusStress:  xx          yy          zz          yz          xz          xy
       -48.29482   -24.99777   -23.15679    -5.93276   -11.71867     0.37133
 Feature   EFS_by	VASP
END_CFG

BEGIN_CFG
Size
    65
 Supercell
        10.552200      0.000000      0.000000
         0.000000     10.552200      0.000000
         0.000000      0.000000     10.552200
 AtomData:  id type       cartes_x      cartes_y      cartes_z           fx          fy          fz
             1    0       2.433960      2.791800      1.446670    -0.411244   -0.292971   -0.213278
             2    0       4.544480      3.074590      4.796630    -1.420300   -1.588881   -0.550417
             3    0       2.113130      0.293770      4.660300    -1.767133    1.379194    0.753923
             4    0       4.318830      0.465600      2.458440     0.826599   -0.320825   -2.714292
             5    0       2.160630      4.040300      6.988020    -2.326875   -2.550600    1.265206
             6    0       1.324400      0.578500      8.696300     1.767646    0.331203   -1.402316
             7    0      10.322400      3.416470      9.492280    -1.220938    2.408317   -0.063585
             8    0       2.365720      9.031320      1.705600    -1.009857   -0.020983   -0.404438
             9    0       3.368480      4.813600      0.014700    -3.037079    2.117972   -2.116131
            10    0       4.750110      7.632260     10.414750    -0.519919   -0.291587    0.996182
            11    0       1.912060      5.216030      3.938220     1.032155   -0.137471   -0.230493
            12    0       4.564290      8.064470      4.154560    -1.791587    3.089385    3.142768
            13    0      10.312810      7.853300      4.428880    -0.312545    0.320825   -0.045849
            14    0       2.615510      7.012510      6.664320    -1.327935    0.279972    2.800814
            15    0       0.492690      7.329870      9.887540     0.733664   -1.644335   -0.502558
            16    0       7.280180      2.137730      0.308690     0.264531   -2.316302    2.196276
            17    0       5.295830      4.759730      1.547170     0.622350   -0.920079    2.622280
            18    0       8.490510      4.656470      2.235260     0.841230    1.980788   -0.884071
            19    0       9.868590      0.357580      1.530420     4.876542    0.742123   -2.206121
            20    0       7.059420      0.291630      4.495750     1.568001   -0.258100   -0.393385
            21    0      10.070500      3.298150      4.101350     1.276665   -0.716334    1.200418
            22    0       6.962410      4.781960      5.173750     1.504453    0.934834    0.879328
            23    0       8.352570      1.913320      7.334340     0.228441    1.289773    0.273067
            24    0       5.160250      0.487650      6.906500    -3.997922    1.364401   -1.107286
            25    0       5.049810      3.321210      9.303290    -1.422658   -2.941582   -1.687058
            26    0       7.203050      7.819260      2.372990     1.684182    0.427302   -0.458918
            27    0       9.078290      5.837810      6.371560     1.654550   -1.839199    0.782261
            28    0       5.013440      6.347680      7.441100     0.130182   -0.257388   -0.396306
            29    0       7.544680      7.970390      6.923050    -1.046346   -0.776864    0.509007
            30    0      10.184400      9.677550      7.176300    -2.887113    0.097333   -0.430187
            31    0       6.881780      9.949690      9.857180     0.919990   -0.618903    1.691618
            32    0       7.823110      6.087560      9.292200    -0.742963   -1.815741    2.137006
            33    1       0.978670      1.876130     10.202690     0.832186    1.052950    1.981462
            34    1       4.057860      3.704200      2.992950    -3.677211    0.386946   -1.053593
            35    1       1.437810      1.173210      2.359350     0.490403   -0.046078    0.725054
            36    1       4.717370      0.285560      4.486770    -0.335964   -0.016296    1.405818
            37    1       0.885110      1.008770      6.478060    -0.226798   -2.016999   -0.177527
            38    1       1.594850      3.079780      5.020000    -0.126393    0.684102   -1.405073
            39    1       3.539560      2.210170      7.627580     0.650757    0.159460    0.046949
            40    1      10.188770      3.668970      7.217050    -1.230845   -0.183213    1.282571
            41    1       2.391180      7.046120      0.651150     0.346860    0.694085    0.250601
            42    1       0.818510      9.571470      9.929050     0.190178   -1.586015    1.825773
            43    1       2.525380      7.460070      4.662160    -0.353797    0.161416   -2.131598
            44    1       0.672510      9.214660      3.016280    -0.045972   -0.340761   -0.014433
            45    1       0.669760      5.719060      5.907950     0.313860    1.136246   -1.337536
            46    1       1.354730      8.849790      7.017130     2.117387   -1.593850   -0.470268
            47    1       3.611510      4.841930      5.622140     0.116069    1.909434    0.433681
            48    1       1.670710      5.887420      8.688480     0.277875   -0.401908    0.239283
            49    1       8.983800      2.840040      1.521410     1.273174   -1.539581   -0.030911
            50    1       5.682090      2.074480      1.490790    -1.670999   -0.982644    0.455691
            51    1       6.298870      3.825500      3.580340     1.909505    1.179121   -0.964769
            52    1       8.475880      0.098230      2.724900    -3.487594   -0.848959    2.406056
            53    1       5.999340      2.439720      6.048650     2.419236   -0.777604    1.285017
            54    1       9.553520      0.732030      8.730430    -0.688384    1.127252   -0.492455
            55    1       7.273630      3.166880      9.208430     1.843215    1.200686   -3.320920
            56    1       6.782030      0.208600      7.995690     1.884074    0.286422   -0.566326
            57    1       5.902830      9.069670      1.240500    -0.216338    0.212145   -0.957830
            58    1       6.772900      6.181100      0.810790     1.853619    1.327221    0.758215
            59    1       9.701210      5.345270     10.418740    -0.597710    0.464171   -0.307622
            60    1       5.448900      6.885600      2.981630     0.541049   -3.586218   -1.448342
            61    1       8.807650      6.016810      3.930400    -0.250043    0.048544    0.505090
            62    1       8.103910      8.964950      5.357700     1.343378    1.968199   -2.457031
            63    1       9.168640      7.652240      8.639910     1.244920    0.298642   -0.430554
            64    1       6.390700      7.970730      8.992070    -0.445263    0.039693   -0.341606
            65    1       5.515360      5.292490      9.484460    -0.983196    2.128110   -1.136335
 Energy
       -749.048893730000
 PlusStress:  xx          yy          zz          yz          xz          xy
       -13.42876   -34.01609   -11.80838     0.75988     2.60001     5.48230
 Feature   EFS_by	VASP
END_CFG

