BEGIN_CFG
Size
    65
 Supercell
        10.040800      0.000000      0.000000
         0.000000     10.040800      0.000000
         0.000000      0.000000     10.040800
 AtomData:  id type       cartes_x      cartes_y      cartes_z           fx          fy          fz
             1    0       2.663980      2.762890      1.972870    -1.089447    1.463566    0.804406
             2    0       4.827960      2.520410      4.500300    -1.091090   -0.419114    0.618044
             3    0       9.983770      2.383940      4.673730     0.699052    0.654251   -0.254074
             4    0       2.190450      0.054660      4.683380     1.155101    0.341556    1.470181
             5    0       4.747300      0.205150      7.260890    -0.509472   -0.852442   -1.293627
             6    0       2.428220      0.475010      9.512810    -0.102698   -3.356092   -3.064222
             7    0       2.239660      2.612430      7.314680     0.970550    0.244213   -2.530849
             8    0       0.089600      5.146090      2.334430     0.062594   -0.966330   -0.895344
             9    0       2.555260      7.598690      2.469100     0.510176   -1.365447   -1.977789
            10    0       2.269480      5.511020      5.241960     1.283548   -1.784612   -1.833808
            11    0       2.477520      5.411200      9.775330    -0.874779   -1.769755   -0.555810
            12    0       2.233470      7.607960      7.679760     0.303312    0.472184   -3.291580
            13    0       0.016810      7.956110      9.401360    -1.366272   -1.285197    0.910722
            14    0       7.744960      2.471000      2.358420    -1.318306    0.003175   -3.251329
            15    0       5.079310      0.142370      2.182160    -2.029828   -0.539988   -0.797591
            16    0       9.840420      0.481990      1.860630     1.013572   -2.161185    0.417990
            17    0       7.684550      2.455900      6.913600    -2.349622    0.045689    0.439675
            18    0       9.663410      9.984700      6.918170     0.334109    3.191134   -0.009796
            19    0       4.878410      2.785060      9.397480     1.424605   -0.176444    2.341800
            20    0       7.279270      0.163360      9.720420     1.202307    0.210477   -1.884260
            21    0       9.897380      2.708360      9.346300    -0.603086   -0.039279    2.349639
            22    0       7.737270      7.274460      1.870760    -1.695214    0.473247   -0.595792
            23    0       5.203610      5.028500      1.973130    -1.439162    1.153022    0.106145
            24    0       7.000410      4.886570      4.753160     2.412800    0.658242   -0.002997
            25    0       7.362510      9.651600      4.065610    -0.429307    1.722403    3.213676
            26    0       9.807630      7.367690      4.483230     1.371534    1.239564    2.327378
            27    0       5.003100      7.537630      4.773580    -1.350092    0.127561   -0.675425
            28    0       9.686110      5.226980      6.910190     0.357202   -0.592645    2.230667
            29    0       7.299440      7.467810      6.786830    -0.301254    1.248148    1.391900
            30    0       4.847260      4.732670      7.036880    -0.014988    3.305385    1.319191
            31    0       7.525120      4.994470      9.564670     0.520483    0.852923   -0.460309
            32    0       5.044190      7.708710      9.537730    -0.060049   -0.326517    1.188659
            33    1       2.390320      0.551130      1.465530    -0.782024    3.086330   -1.545280
            34    1       0.123940      2.756010      2.046760     0.277570    0.273646    0.126415
            35    1       4.528940      0.086370      4.536550     0.414112    0.030999    0.604464
            36    1       4.839420      2.596510      7.134210     0.040554   -1.514092   -1.295592
            37    1       2.437780      2.485560      4.780620    -0.247757   -0.108913   -0.359708
            38    1       2.299740      9.924690      7.176820    -0.331048    0.806572   -0.558320
            39    1       2.308150      2.641560      9.555220     0.710693    2.221954    1.305626
            40    1       9.963410      0.375660      9.259810    -0.327993   -0.011023    1.138071
            41    1       2.869320      5.286380      1.927250    -0.940490   -0.295550    0.353119
            42    1       9.834700      7.890790      2.535530     0.783194   -0.719197   -3.465552
            43    1       2.452570      7.774590      9.860960     0.847709    0.396716    1.010780
            44    1       2.415160      7.876080      4.845360    -0.064284   -0.710677   -0.090616
            45    1       4.671710      4.943030      4.603180     0.193522    0.407625    0.305279
            46    1       2.548510      9.807230      2.421710     0.285988   -2.728303    4.439747
            47    1       9.892930      5.610860      0.014600     0.304340   -0.619187    0.044912
            48    1       1.970000      5.023570      7.517130     0.881392    0.098442   -0.595733
            49    1       5.305190      2.780990      1.820220    -0.996814   -0.893349    1.081425
            50    1       9.586420      9.575540      4.459570     0.370203    2.246369    0.530501
            51    1       7.383030      2.578570      4.372200    -0.098330   -0.742182    2.426859
            52    1       9.807370      5.116260      4.795070     0.005121   -1.868169   -1.198984
            53    1       7.373750      4.566590      2.660370     1.165647    1.532022   -2.030824
            54    1       0.010800      2.511990      7.136450    -0.952318    0.633630   -1.227710
            55    1       6.718950      0.342870      6.781250     2.632342   -0.426125    0.317297
            56    1       7.547910      2.586420      9.672930    -0.372113   -0.014577   -0.756050
            57    1       4.902780      0.238310      9.676550     0.269968    0.244351    0.092639
            58    1       5.080050      7.503520      1.800480    -0.144494    0.169875    0.770721
            59    1       7.285460      9.718720      1.877570     1.383070    0.589314   -0.467253
            60    1       7.569730      7.236980      4.202920    -1.188657    0.680185    0.638032
            61    1       9.892840      8.027350      6.745600    -0.470480   -3.268983    1.340170
            62    1       4.526970      7.416520      7.363880     0.942002    0.748100   -0.829349
            63    1       7.239450      5.255710      7.240730     0.026709   -1.055656   -0.102849
            64    1       5.016010      5.461860      9.623180    -0.149109   -1.309558    0.060251
            65    1       7.865260      7.531570      9.320700    -1.464501    0.347722    0.182043
 Energy
       -777.333495460000
 PlusStress:  xx          yy          zz          yz          xz          xy
       -50.28093   -33.91144   -10.89576     1.17378     4.21142    -1.61746
 Feature   EFS_by	VASP
END_CFG

