LAMMPS data file via write_data, version 29 Aug 2024, timestep = 1000229, units = metal

65 atoms
2 atom types

-0.18824254461817524 9.928242544617943 xlo xhi
-0.18824254461817524 9.928242544617943 ylo yhi
-0.18824254461817524 9.928242544617943 zlo zhi

Masses

1 238.029
2 14.0067

Atoms # atomic

7 1 0.6988254967713333 0.8969947384559815 2.2525850528078943 0 0 0
45 2 0.7916290158610748 3.2141759100610936 1.9340104043334083 -8 -4 -4
64 2 1.4439135152782925 0.9473229612141238 0.1059487842865463 1 -4 1
2 1 3.2768526048411517 2.9890899740475527 2.5748948990892147 0 0 0
20 1 0.8784334804182992 3.69385113610841 4.3905852322556616 0 0 0
53 2 3.4707764299068162 3.2459459447115213 4.740340092751411 1 3 3
1 1 3.02973518382559 0.8484592497121308 4.797373351431452 0 0 0
42 2 3.2721741459976648 0.8388215728917914 2.4848129254783116 -1 9 0
57 2 0.893692178680165 0.4280330631952849 4.778113372297839 -1 -5 0
18 1 3.4219921259077997 3.0207453640462987 7.128249226487762 0 0 0
23 1 -0.08506493949341588 0.841746071085339 7.044232917480715 0 0 0
17 1 3.463919541033828 0.681591202459196 9.826598895085137 0 0 -1
46 2 3.5426130714081725 3.0781749110984666 9.783453419506777 -7 4 2
4 1 0.7902905935421687 3.3223555551167134 9.751551009148848 0 0 -1
54 2 0.3105820074762346 3.2669603860846417 7.7162143260741605 3 -4 -1
33 2 3.8127466679496047 0.9319927917003479 7.592988479955766 1 -5 -2
10 1 3.044905674720603 8.063195966461489 2.150218277152648 0 0 0
40 2 0.7401760833208267 5.61151657436203 -0.10162014833305594 2 5 -1
15 1 0.0913428011595438 5.526232835904516 1.9640194675814455 0 0 0
34 2 -0.013974152745153734 8.651282788450015 1.9717261933804076 -5 -1 -3
28 1 0.5968048935970379 8.009099031799996 4.484690114521333 0 0 0
61 2 3.445204437878169 5.8857433992103 2.429919821465206 -4 2 0
9 1 3.640798604221143 5.794391821992395 4.7380567817223 0 0 0
39 2 2.785996966126845 8.31181027992557 4.632162165601237 -6 -6 2
47 2 0.5541824960754205 7.68558940056588 6.777049953876306 2 -6 5
26 1 3.3219772103577623 8.107521406184416 7.23067754152097 0 0 0
63 2 3.1137190518938365 5.877444992532468 7.27755256252624 -3 -3 2
31 1 0.5502461872367499 5.8439431670554045 7.285861786205415 0 0 0
41 2 0.737724941311358 5.916452477717823 5.098789511070854 0 1 -3
12 1 0.26141808079191464 8.768287146030648 9.802760563906046 0 0 -1
56 2 2.6422681268841144 8.028640399936677 9.870034813472707 -4 -6 1
25 1 3.297159729052682 5.866451030095413 9.891783576535767 0 0 -1
6 1 8.5690271814018 3.4848574191642063 2.0069968433104597 0 0 0
8 1 5.670573367457547 3.479931743859266 -0.12420501072414232 0 0 0
49 2 7.987852932126046 1.1154913991948465 2.129169901036375 0 -1 0
3 1 5.6229450703008474 0.5365738563172747 2.053209424670904 0 0 0
21 1 7.756141043758673 0.7333335506047479 -0.12030770287670656 0 0 0
44 2 5.5686468917890934 2.828046678715504 2.241560470762006 1 5 1
5 1 8.35187895382819 0.48301656540191096 4.0791708616704065 0 0 0
52 2 8.852815235148096 3.1299116780111893 4.6216233995039975 -1 0 1
24 1 5.751386780077392 2.866129812599062 4.656895613158561 0 0 0
43 2 5.693427815609426 0.6470723337157661 4.425359846821402 -5 5 1
60 2 7.777324637105711 1.3930020591207082 6.2134117394791435 -6 -4 -3
35 2 5.6693496056378905 3.278109107189238 7.304788764216478 -4 -2 -2
19 1 5.980117520828974 0.405537696985099 7.402235649554329 0 0 0
48 2 7.973279136347951 3.096909640056572 9.878736688031946 0 -6 3
65 2 5.649402173362879 1.0465686633364941 9.685400195018756 -4 -1 3
22 1 7.814705417425088 3.018170368396602 7.4379100795813455 0 0 0
14 1 7.981348904018613 8.242196382125465 2.2772350866197644 0 0 0
62 2 7.67001293063202 8.426631760877427 0.030522776419272035 0 1 -1
59 2 5.141900479832487 8.368864011854525 2.0530133739978726 -1 -7 3
11 1 5.638878694173619 5.4316485352199395 2.074175035803387 0 0 0
58 2 7.927540865442092 5.715032178220384 2.24789224450622 -6 -2 -1
13 1 8.14054236906051 5.7435196568388625 4.554480544783752 0 0 0
36 2 7.575431506666803 8.013334937458257 4.505119523180715 -4 4 -6
32 1 5.680707311965968 8.606533677895788 4.422828621017536 0 0 0
51 2 5.998107391515927 5.939098710151489 4.636563497868591 4 -4 1
27 1 5.850252389132955 5.7339983985400815 7.339856422288852 0 0 0
38 2 5.793160428652295 8.168415139778933 7.259136215485758 -1 -3 -2
30 1 8.10329788928077 7.906010829290954 7.03031660879066 0 0 0
55 2 8.418908652127204 5.644475833554713 7.1579721578908835 5 0 5
50 2 9.299319230410495 9.504283177954706 8.20912586319676 -5 -7 6
16 1 5.656312748775093 8.102149858492211 9.873750520616639 0 0 -1
29 1 8.47006302055196 5.755150821472832 9.914622118461798 0 0 -1
37 2 5.539942918393591 5.656080557106715 9.922150575647937 -1 -2 -3

Velocities

7 -1.8714032871228952 2.803422470152528 0.8716636866365391
45 -0.5459298473755758 -6.657338453807132 2.244372006020819
64 11.136395506819266 6.141462585186002 -6.58847841173023
2 0.5281038982457877 -1.7056836941124098 -2.4616759412732474
20 1.4613912020738224 -0.5692453288036641 2.3484308329763146
53 -33.59096207494662 -18.417157819978485 19.21401646151772
1 3.8052016362659935 -7.609386448065248 -4.224261219274101
42 6.027824154313885 -1.5648964041196023 -6.5378406622365475
57 7.983368729565616 1.194514023443812 -16.018928950137482
18 -4.068472596309648 -3.040979707955541 0.510917202449723
23 0.3965953001719647 0.25316278213211285 2.944507989365064
17 5.6032746878818624 0.9356843908085518 5.1697128254474585
46 -14.524461060310843 -15.123051267370405 11.40716044450642
4 -0.633829289431205 4.477423753433383 0.4374779484417252
54 8.356403637783687 4.201338429736758 12.237966936828565
33 6.833202880934582 -2.2278400585378804 21.247848036447998
10 -2.8786500224557745 2.6727726355827084 0.3884816912185539
40 14.083903061393173 -7.185143142896169 -11.280086600258667
15 5.775873487492953 6.086804126079301 0.398556718154873
34 4.042006097176889 -11.129623881352648 6.732164971376826
28 0.9665852085161919 5.904986952804493 0.16046588701304731
61 -4.6190497943411675 22.90509526253072 -3.996351583933534
9 0.7874786024630388 2.3987017455154462 -0.016913901762648013
39 -17.128572511673834 -7.384685187255463 -6.135416274919976
47 2.080067565019146 -4.9610709325828015 -20.09255692086934
26 -0.15363037736713425 -3.9250250608222763 -0.8885702641628455
63 -17.495432780229542 -15.118823852385109 27.54453467646465
31 0.4708263889757516 -0.22802886232250277 -4.225510598055665
41 -2.6181559845889724 -4.105589345034348 29.465270765160188
12 1.3293939765451703 -1.074278172679419 4.941348017634811
56 2.4234568756469814 -3.2637997051172074 1.577539044442487
25 4.195808653996696 -6.036520850271701 -6.199926741523488
6 -1.4693199812721787 -1.7061475157491974 -1.6671511915269968
8 -0.9467551371881675 0.844846203518616 -4.207960380775611
49 -12.302163513314184 9.638001114778147 14.016650816962974
3 -1.1576757231287018 -4.363331072965612 -3.9335902794541293
21 -0.6697363118991596 0.9739296463386574 -1.367101578693946
44 2.0421730635159614 -22.129794006965604 -15.999374820942132
5 2.74634542604173 3.0054833633673796 2.2522767647522586
52 -9.828479250303026 -20.63576889423704 21.52659352189459
24 0.5952628941986443 3.351049414686011 2.795671614221159
43 4.468601038498736 29.917507902377228 0.5170465805866706
60 -3.862077795990609 5.832724756011834 12.060115706710972
35 27.087177839973048 7.9941109618714075 29.91241614710859
19 1.4499694540225885 1.4740867143193253 -4.569882259458831
48 -5.955713773800808 -15.629860002745946 6.324032418309026
65 -3.45847221845147 26.419104033658396 3.747830623148368
22 -6.683205784811854 -3.223803155909483 1.8568525633485473
14 -0.5946984202214627 -2.2454735192052695 -2.547059210184994
62 -8.22018948675289 7.669730850036808 -19.32828435271565
59 9.050171026589958 -3.84178355938091 7.272158356380957
11 0.203399807768192 9.465908888597454 5.991000970395311
58 -11.158463181927786 -16.855509681845813 -7.8433721717137335
13 -2.8364095111057153 -2.507106832604559 -3.7467948584439794
36 -6.220376865094332 -2.9174507593679615 13.110929611707878
32 -0.3541153918666707 3.137594075629859 1.9090857419048681
51 -12.667078591407751 -19.020479715815412 1.1773799884014386
27 1.2454534595742572 1.9180957665413796 -0.8186477631844217
38 6.015916870447068 -7.270711200864885 3.47902838518602
30 0.7091424370378325 -1.371050298235893 8.404168488788928
55 -15.71260788561958 -2.9328754264700683 -29.5873690539348
50 17.613700753884917 1.990909302054095 6.212454105918791
16 0.09112270969655502 -0.5223131291933647 -2.308972050902645
29 -4.260343148795577 -3.4134217568324234 -4.0952430798391175
37 -13.623984577797106 -20.250572618930764 -7.3782833553137195
