LAMMPS (29 Aug 2024 - Update 2)
# LAMMPS input script for 20 ps NPT simulation

units           metal
dimension       3
boundary        p p p
atom_style      atomic

# Read data file
read_data       initial.lmp
Reading data file ...
  orthogonal box = (-0.18824254 -0.18824254 -0.18824254) to (9.9282425 9.9282425 9.9282425)
  2 by 2 by 4 MPI processor grid
  reading atoms ...
  65 atoms
  reading velocities ...
  65 velocities
  read_data CPU = 0.009 seconds

mass 1 238.029
mass 2 14.0067

# Define interatomic potential
pair_style      mlip load_from=pot.almtp extrapolation_control=true extrapolation_control:threshold_save=1.2 extrapolation_control:threshold_break=2.0 extrapolation_control:save_extrapolative_to=preselected.cfg
pair_coeff      * *

# Define simulation settings
neighbor        2.0 bin
neigh_modify    delay 10

thermo          1

# Fix box/relax for pressure relaxation (optional)
fix             1 all box/relax iso 0.0 vmax 0.001

# Minimize energy
min_style       cg
minimize        1.0e-12 1.0e-12 5000 50000
Switching to 'neigh_modify every 1 delay 0 check yes' setting during minimization
Neighbor list info ...
  update: every = 1 steps, delay = 0 steps, check = yes
  max neighbors/atom: 2000, page size: 100000
  master list distance cutoff = 7
  ghost atom cutoff = 7
  binsize = 3.5, bins = 3 3 3
  1 neighbor lists, perpetual/occasional/extra = 1 0 0
  (1) pair mlip, perpetual
      attributes: full, newton on
      pair build: full/bin/atomonly
      stencil: full/bin/3d
      bin: standard
WARNING: Energy due to 1 extra global DOFs will be included in minimizer energies
 (../min.cpp:219)
Per MPI rank memory allocation (min/avg/max) = 4.091 | 4.091 | 4.092 Mbytes
   Step          Temp          E_pair         E_mol          TotEng         Press          Volume    
         0   3103.7949     -775.51289      0             -749.83628     -11357.9        1035.3542    
         1   3103.7949     -775.54931      0             -749.87271     -2279.5596      1032.2512    
         2   3103.7949     -775.57834      0             -749.90173      6920.6648      1029.1545    
         3   3103.7949     -775.60123      0             -749.92462      16218.523      1026.0639    
         4   3103.7949     -775.62285      0             -749.94624      25563.13       1022.9796    
         5   3103.7949     -775.75738      0             -750.08077      33698.478      1019.9014    
         6   3103.7949     -775.80446      0             -750.12785      23562.345      1022.9796    
         7   3103.7949     -775.92829      0             -750.25168      31819.099      1019.9014    
         8   3103.7949     -775.99135      0             -750.31474      21498.018      1022.9796    
         9   3103.7949     -776.0785       0             -750.4019       30163.327      1019.9014    
        10   3103.7949     -776.17411      0             -750.4975       19474.12       1022.9796    
        11   3103.7949     -776.24078      0             -750.56417      28370.917      1019.9014    
        12   3103.7949     -776.44469      0             -750.76809      16467.161      1022.9796    
        13   3103.7949     -776.49724      0             -750.82063      25530.219      1019.9014    
        14   3103.7949     -776.61102      0             -750.93442      33946.454      1016.8294    
        15   3103.7949     -776.65731      0             -750.9807       23752.586      1019.9014    
        16   3103.7949     -776.7812       0             -751.10459      32062.422      1016.8294    
        17   3103.7949     -776.84098      0             -751.16437      21708.184      1019.9014    
        18   3103.7949     -776.9304       0             -751.25379      30407.201      1016.8294    
        19   3103.7949     -777.01902      0             -751.34242      19722.58       1019.9014    
        20   3103.7949     -777.08748      0             -751.41087      28660.443      1016.8294    
        21   3103.7949     -777.26065      0             -751.58404      17020.861      1019.9014    
        22   3103.7949     -777.31405      0             -751.63744      26134.611      1016.8294    
        23   3103.7949     -777.48764      0             -751.81104      33942.001      1013.7636    
        24   3103.7949     -777.52861      0             -751.852        23736.042      1016.8294    
        25   3103.7949     -777.65449      0             -751.97789      32080.878      1013.7636    
        26   3103.7949     -777.71227      0             -752.03566      21677.74       1016.8294    
        27   3103.7949     -777.80162      0             -752.12502      30436.949      1013.7636    
        28   3103.7949     -777.88863      0             -752.21203      19696.646      1016.8294    
        29   3103.7949     -777.95708      0             -752.28048      28697.109      1013.7636    
        30   3103.7949     -778.12818      0             -752.45157      17001.848      1016.8294    
        31   3103.7949     -778.18116      0             -752.50456      26183.545      1013.7636    
        32   3103.7949     -778.3363       0             -752.65969      34273.052      1010.7039    
        33   3103.7949     -778.37624      0             -752.69963      23990.438      1013.7636    
        34   3103.7949     -778.50664      0             -752.83003      32363.454      1010.7039    
        35   3103.7949     -778.56113      0             -752.88452      21909.292      1013.7636    
        36   3103.7949     -778.65479      0             -752.97819      30699.272      1010.7039    
        37   3103.7949     -778.7355       0             -753.0589       19942.912      1013.7636    
        38   3103.7949     -778.80712      0             -753.13051      28985.258      1010.7039    
        39   3103.7949     -778.95512      0             -753.27851      17460.499      1013.7636    
        40   3103.7949     -779.00981      0             -753.3332       26701.031      1010.7039    
        41   3103.7949     -779.30243      0             -753.62582      33305.999      1007.6504    
        42   3103.7949     -779.33772      0             -753.66111      22997.149      1010.7039    
        43   3103.7949     -779.45009      0             -753.77348      31642.398      1007.6504    
        44   3103.7949     -779.51043      0             -753.83383      21040.938      1010.7039    
        45   3103.7949     -779.59424      0             -753.91763      30017.136      1007.6504    
        46   3103.7949     -779.69167      0             -754.01506      18989.664      1010.7039    
        47   3103.7949     -779.75599      0             -754.07938      28190.314      1007.6504    
        48   3103.7949     -780.01535      0             -754.33874      15320.202      1010.7039    
        49   3103.7949     -780.06481      0             -754.3882       24697.625      1007.6504    
        50   3103.7949     -780.10958      0             -754.43297      34165.335      1004.6031    
        51   3103.7949     -780.16292      0             -754.48632      23587.452      1007.6504    
        52   3103.7949     -780.25376      0             -754.57715      32538.105      1004.6031    
        53   3103.7949     -780.31504      0             -754.63843      21863.952      1007.6504    
        54   3103.7949     -780.40608      0             -754.72947      30819.302      1004.6031    
        55   3103.7949     -780.48841      0             -754.8118       19896.24       1007.6504    
        56   3103.7949     -780.56267      0             -754.88606      29051.76       1004.6031    
        57   3103.7949     -780.70925      0             -755.03264      17387.273      1007.6504    
        58   3103.7949     -780.76437      0             -755.08776      26770.119      1004.6031    
        59   3103.7949     -780.97218      0             -755.29557      34456.339      1001.5619    
        60   3103.7949     -781.00614      0             -755.32954      24026.97       1004.6031    
        61   3103.7949     -781.14138      0             -755.46477      32542.725      1001.5619    
        62   3103.7949     -781.19191      0             -755.51531      21914.676      1004.6031    
        63   3103.7949     -781.29327      0             -755.61666      30822.338      1001.5619    
        64   3103.7949     -781.3694       0             -755.6928       19892.829      1004.6031    
        65   3103.7949     -781.44636      0             -755.76975      29086.662      1001.5619    
        66   3103.7949     -781.58804      0             -755.91144      17397.667      1004.6031    
        67   3103.7949     -781.64354      0             -755.96694      26847.364      1001.5619    
        68   3103.7949     -781.83532      0             -756.15871      34793.126      998.5269     
        69   3103.7949     -781.86863      0             -756.19203      24286.431      1001.5619    
        70   3103.7949     -782.01114      0             -756.33454      32799.532      998.5269     
        71   3103.7949     -782.05932      0             -756.38271      22112.967      1001.5619    
        72   3103.7949     -782.16862      0             -756.49202      31011.071      998.5269     
        73   3103.7949     -782.24046      0             -756.56385      20047.1        1001.5619    
        74   3103.7949     -782.32315      0             -756.64654      29253.513      998.5269     
        75   3103.7949     -782.45282      0             -756.77621      17623.843      1001.5619    
        76   3103.7949     -782.51067      0             -756.83406      27117.289      998.5269     
        77   3103.7949     -782.78729      0             -757.11068      34170.269      995.49801    
        78   3103.7949     -782.81748      0             -757.14088      23623.253      998.5269     
        79   3103.7949     -782.95626      0             -757.27965      32249.924      995.49801    
        80   3103.7949     -783.0065       0             -757.32989      21465.574      998.5269     
        81   3103.7949     -783.11264      0             -757.43604      30471.402      995.49801    
        82   3103.7949     -783.19275      0             -757.51614      19339.117      998.5269     
        83   3103.7949     -783.26976      0             -757.59315      28682.638      995.49801    
        84   3103.7949     -783.45271      0             -757.77611      16367.922      998.5269     
        85   3103.7949     -783.50427      0             -757.82767      26007.849      995.49801    
        86   3103.7949     -783.56006      0             -757.88345      35651.348      992.47524    
        87   3103.7949     -783.60325      0             -757.92664      24879.966      995.49801    
        88   3103.7949     -783.71612      0             -758.03951      33876.482      992.47524    
        89   3103.7949     -783.76537      0             -758.08877      23031.059      995.49801    
        90   3103.7949     -783.88763      0             -758.21102      31922.761      992.47524    
        91   3103.7949     -783.95142      0             -758.27481      20905.765      995.49801    
        92   3103.7949     -784.05774      0             -758.38113      29985.414      992.47524    
        93   3103.7949     -784.15466      0             -758.47805      18579.417      995.49801    
        94   3103.7949     -784.22734      0             -758.55073      28052.965      992.47524    
        95   3103.7949     -784.66773      0             -758.99112      12683.738      995.49801    
        96   3103.7949     -784.71773      0             -759.04113      22446.18       992.47524    
        97   3103.7949     -784.73371      0             -759.05711      32633.708      989.4586     
        98   3103.7949     -784.84902      0             -759.17241      20940.394      992.47524    
        99   3103.7949     -784.89559      0             -759.21899      30787.366      989.4586     
       100   3103.7949     -785.02708      0             -759.35047      18894.644      992.47524    
       101   3103.7949     -785.0926       0             -759.416        28540.351      989.4586     
       102   3103.7949     -785.36889      0             -759.69228      14957.717      992.47524    
       103   3103.7949     -785.42011      0             -759.7435       24793.665      989.4586     
       104   3103.7949     -785.44496      0             -759.76835      34972.739      986.44808    
       105   3103.7949     -785.51249      0             -759.83589      23734.315      989.4586     
       106   3103.7949     -785.57559      0             -759.89899      33482.584      986.44808    
       107   3103.7949     -785.65192      0             -759.97532      22133.107      989.4586     
       108   3103.7949     -785.74681      0             -760.07021      31525.848      986.44808    
       109   3103.7949     -785.83711      0             -760.1605       20001.767      989.4586     
       110   3103.7949     -785.94056      0             -760.26395      29306.549      986.44808    
       111   3103.7949     -786.08023      0             -760.40362      17195.247      989.4586     
       112   3103.7949     -786.14514      0             -760.46853      26957.11       986.44808    
       113   3103.7949     -786.22981      0             -760.55321      36534.523      983.44367    
       114   3103.7949     -786.26555      0             -760.58895      25571.295      986.44808    
       115   3103.7949     -786.41332      0             -760.73671      34432.567      983.44367    
       116   3103.7949     -786.45605      0             -760.77945      23373.873      986.44808    
       117   3103.7949     -786.62446      0             -760.94785      32007.132      983.44367    
       118   3103.7949     -786.68126      0             -761.00465      20767.721      986.44808    
       119   3103.7949     -786.83261      0             -761.156        29608.385      983.44367    
       120   3103.7949     -786.92776      0             -761.25115      17903.922      986.44808    
       121   3103.7949     -787.00211      0             -761.3255       27649.262      983.44367    
       122   3103.7949     -787.29249      0             -761.61588      34942.754      980.44537    
       123   3103.7949     -787.31824      0             -761.64163      23980.409      983.44367    
       124   3103.7949     -787.54405      0             -761.86744      32030.482      980.44537    
       125   3103.7949     -787.58616      0             -761.90955      20857.813      983.44367    
       126   3103.7949     -787.76727      0             -762.09066      29437.148      980.44537    
       127   3103.7949     -787.85332      0             -762.17672      17744.704      983.44367    
       128   3103.7949     -787.92202      0             -762.24541      27641.165      980.44537    
       129   3103.7949     -788.11604      0             -762.43943      36126.537      977.45317    
       130   3103.7949     -788.14413      0             -762.46752      25058.515      980.44537    
       131   3103.7949     -788.35734      0             -762.68073      33330.209      977.45317    
       132   3103.7949     -788.39712      0             -762.72052      22124.615      980.44537    
       133   3103.7949     -788.661        0             -762.98439      29818.944      977.45317    
       134   3103.7949     -788.72869      0             -763.05209      18273.225      980.44537    
       135   3103.7949     -788.81413      0             -763.13753      28047.624      977.45317    
       136   3103.7949     -792.2275       0             -766.55089     -1012.774       974.46706    
       137   3103.7949     -792.29529      0             -766.61868      9203.7693      971.48704    
       138   3103.7949     -792.30403      0             -766.62743      14624.886      969.99931    
       139   3103.7949     -792.31075      0             -766.63414      20082.282      968.51311    
       140   3103.7949     -792.31605      0             -766.63944      25572.987      967.02841    
       141   3103.7949     -792.33007      0             -766.65346      36548.964      964.06359    
       142   3103.7949     -792.67093      0             -766.99432      21441.554      967.02841    
       143   3103.7949     -792.70954      0             -767.03294      32152.208      964.06359    
       144   3103.7949     -793.57239      0             -767.89578      10884.897      967.02841    
       145   3103.7949     -793.69009      0             -768.01349      20717.559      964.06359    
       146   3103.7949     -793.69728      0             -768.02067      31394.22       961.23679    
       147   3103.7949     -795.45171      0             -769.7751       22403.223      958.28382    
       148   3103.7949     -795.47249      0             -769.79589      33664.485      955.3369     
       149   3103.7949     -795.60512      0             -769.92852      43712.674      952.39603    
       150   3103.7949     -795.66434      0             -769.98773      31461.244      955.3369     
       151   3103.7949     -795.67297      0             -769.99637      21928.187      957.74719    
       152   3103.7949     -797.50007      0             -771.82346      12558.061      954.80137    
       153   3103.7949     -797.5262       0             -771.84959      23996.865      951.8616     
       154   3103.7949     -797.53054      0             -771.85393      31925.665      949.87665    
       155   3103.7949     -800.04069      0             -774.36408      16849.515      946.947      
       156   3103.7949     -800.06864      0             -774.39204      28663.976      944.02338    
       157   3103.7949     -800.10847      0             -774.43186      40463.189      941.10579    
       158   3103.7949     -800.15542      0             -774.47881      27845.221      944.02338    
       159   3103.7949     -800.23177      0             -774.55516      39310.23       941.10579    
       160   3103.7949     -800.35007      0             -774.67346      26007.529      944.02338    
       161   3103.7949     -800.46965      0             -774.79304      37087.735      941.10579    
       162   3103.7949     -801.86486      0             -776.18825      12451.083      944.02338    
       163   3103.7949     -802.16967      0             -776.49307      22166.251      941.10579    
       164   3103.7949     -802.17235      0             -776.49575      29960.837      939.2668     
       165   3103.7949     -803.1955       0             -777.5189       25382.226      938.67083    
       166   3103.7949     -803.20076      0             -777.52415      33737.45       936.71718    
       167   3103.7949     -803.20878      0             -777.53217      40966.872      935.03195    
       168   3103.7949     -803.98427      0             -778.30767      37012.179      934.69854    
       169   3103.7949     -803.98668      0             -778.31007      29020.428      936.53722    
       170   3103.7949     -804.48614      0             -778.80954      27554.661      936.39183    
       171   3103.7949     -804.48677      0             -778.81016      30609.528      935.68826    
       172   3103.7949     -804.49073      0             -778.81413      36260.945      934.38883    
       173   3103.7949     -804.77678      0             -779.10018      34212.453      934.44513    
       174   3103.7949     -804.7777       0             -779.1011       29199.067      935.59174    
       175   3103.7949     -804.95879      0             -779.28218      29384.746      936.25516    
       176   3103.7949     -804.96627      0             -779.28966      21108.734      938.14244    
       177   3103.7949     -805.06195      0             -779.38535      27733.412      936.09379    
       178   3103.7949     -805.06212      0             -779.38551      29593.972      935.66589    
       179   3103.7949     -805.0991       0             -779.4225       29013.304      936.08862    
       180   3103.7949     -805.09914      0             -779.42254      29721.104      935.9256     
       181   3103.7949     -805.10808      0             -779.43147      36146.029      934.37228    
       182   3103.7949     -805.1124       0             -779.4358       29120.52       935.92812    
       183   3103.7949     -805.11243      0             -779.43583      29512.149      935.8335     
       184   3103.7949     -805.11246      0             -779.43585      29052.963      935.93585    
       185   3103.7949     -805.11249      0             -779.43589      29444.727      935.83959    
       186   3103.7949     -805.11252      0             -779.43592      28925.463      935.95549    
       187   3103.7949     -805.11258      0             -779.43598      29359.894      935.8462     
       188   3103.7949     -805.11272      0             -779.43611      28287.241      936.08579    
       189   3103.7949     -805.11307      0             -779.43646      29173.185      935.85429    
       190   3103.7949     -805.1131       0             -779.4365       29764.6        935.71832    
       191   3103.7949     -805.12107      0             -779.44446      28534.603      936.03708    
       192   3103.7949     -805.12109      0             -779.44448      29318.857      935.857      
       193   3103.7949     -805.12468      0             -779.44807      28821.607      935.93844    
       194   3103.7949     -805.12469      0             -779.44809      29348.861      935.81701    
       195   3103.7949     -805.12848      0             -779.45188      28316.753      936.14103    
       196   3103.7949     -805.12852      0             -779.45191      29308.862      935.91253    
       197   3103.7949     -805.12921      0             -779.4526       29154.417      935.89116    
       198   3103.7949     -805.12921      0             -779.4526       29310.214      935.85519    
       199   3103.7949     -805.12944      0             -779.45283      29015.315      935.94687    
       200   3103.7949     -805.12944      0             -779.45283      29309.964      935.87975    
       201   3103.7949     -805.12963      0             -779.45302      29195.117      935.89247    
       202   3103.7949     -805.12963      0             -779.45302      29314.302      935.86496    
       203   3103.7949     -805.12974      0             -779.45314      29262.198      935.85644    
       204   3103.7949     -805.12974      0             -779.45314      29328.12       935.84124    
       205   3103.7949     -805.12985      0             -779.45324      29069.585      935.90838    
       206   3103.7949     -805.12985      0             -779.45324      29303.258      935.85496    
       207   3103.7949     -805.12985      0             -779.45325      29421.098      935.82831    
       208   3103.7949     -805.12987      0             -779.45327      29312.164      935.86372    
       209   3103.7949     -805.12987      0             -779.45327      29292.552      935.86822    
       210   3103.7949     -805.12988      0             -779.45327      29271.781      935.86889    
       211   3103.7949     -805.12988      0             -779.45327      29305.617      935.86107    
       212   3103.7949     -805.12988      0             -779.45328      29315.929      935.86376    
       213   3103.7949     -805.12988      0             -779.45328      29303.544      935.86662    
       214   3103.7949     -805.12989      0             -779.45328      29287.762      935.86954    
       215   3103.7949     -805.12989      0             -779.45328      29305.134      935.86554    
       216   3103.7949     -805.12989      0             -779.45328      29309.917      935.86536    
       217   3103.7949     -805.12989      0             -779.45328      29304.719      935.86656    
       218   3103.7949     -805.12989      0             -779.45328      29299.793      935.86684    
       219   3103.7949     -805.12989      0             -779.45328      29305.104      935.86561    
       220   3103.7949     -805.12989      0             -779.45328      29306.615      935.86547    
       221   3103.7949     -805.12989      0             -779.45328      29305.008      935.86584    
Loop time of 1.45716 on 16 procs for 221 steps with 65 atoms

85.2% CPU use with 16 MPI tasks x no OpenMP threads

Minimization stats:
  Stopping criterion = energy tolerance
  Energy initial, next-to-last, final = 
      -775.51288755827  -805.129887552777  -805.129887552877
  Force two-norm initial, final = 75.391923 0.00065204188
  Force max component initial, final = 73.372229 0.00015791241
  Final line search alpha, max atom move = 0.36637311 5.7854859e-05
  Iterations, force evaluations = 221 281

MPI task timing breakdown:
Section |  min time  |  avg time  |  max time  |%varavg| %total
---------------------------------------------------------------
Pair    | 1.2155     | 1.299      | 1.4049     |   4.4 | 89.15
Neigh   | 1.6783e-05 | 2.0758e-05 | 2.3665e-05 |   0.0 |  0.00
Comm    | 0.03951    | 0.14514    | 0.22869    |  13.2 |  9.96
Output  | 0.003813   | 0.0040403  | 0.0065968  |   1.0 |  0.28
Modify  | 0          | 0          | 0          |   0.0 |  0.00
Other   |            | 0.008925   |            |       |  0.61

Nlocal:         4.0625 ave           5 max           3 min
Histogram: 1 0 0 0 0 13 0 0 0 2
Nghost:        389.938 ave         393 max         387 min
Histogram: 2 6 0 0 0 0 0 0 7 1
Neighs:              0 ave           0 max           0 min
Histogram: 16 0 0 0 0 0 0 0 0 0
FullNghs:      370.375 ave         455 max         272 min
Histogram: 1 0 0 0 4 9 0 0 0 2

Total # of neighbors = 5926
Ave neighs/atom = 91.169231
Neighbor list builds = 1
Dangerous builds = 0
unfix           1

# Define initial velocities
velocity        all create 2500.0 84965756 rot yes dist gaussian

# Define thermodynamic output
thermo          1000
thermo_style    custom step temp press pe ke etotal

# Equilibration
fix             1 all npt temp 2500.0 3000.0 0.1 iso 0.0 0.0 1.0

# Time step
timestep        0.001   # 1 fs

run             1000000
Per MPI rank memory allocation (min/avg/max) = 2.967 | 2.967 | 2.967 Mbytes
   Step          Temp          Press          PotEng         KinEng         TotEng    
       221   2500           23604.158     -805.12989      20.681623     -784.44826    
      1000   2658.4374      57296.185     -779.36224      21.99232      -757.36992    
      2000   1758.909       30168.982     -775.84293      14.550837     -761.29209    
      3000   2243.5528      66598.079     -780.34744      18.560126     -761.78731    
      4000   2689.0146      9865.69       -779.85263      22.245275     -757.60735    
      5000   1969.1754     -5521.5416     -776.93725      16.290298     -760.64695    
      6000   2556.4323      89510.174     -784.7977       21.148468     -763.64924    
      7000   1903.972      -21019.394     -777.41812      15.750892     -761.66723    
      8000   2386.3618      29307.635     -774.47395      19.741534     -754.73241    
      9000   2412.41       -6505.4452     -780.68848      19.957022     -760.73145    
     10000   2338.6278     -61863.392     -779.14228      19.346648     -759.79563    
     11000   2916.254      -48214.855     -775.97674      24.125146     -751.8516     
     12000   2478.8073     -45724.58      -783.77006      20.506303     -763.26376    
     13000   2460.8874     -37785.395     -778.78101      20.358059     -758.42295    
     14000   2353.7568      37776.728     -779.68344      19.471804     -760.21164    
     15000   2322.2152      8075.058      -784.68479      19.210872     -765.47392    
     16000   1918.0364     -31486.795     -779.03927      15.867242     -763.17203    
     17000   2869.7959     -29418.804     -777.2726       23.740815     -753.53178    
     18000   2110.426       50206.742     -775.68503      17.458814     -758.22621    
     19000   2705.7481      8135.6732     -781.70355      22.383705     -759.31984    
     20000   2716.1289      25873.821     -779.65819      22.469582     -757.18861    
     21000   2476.9619     -3586.5484     -780.87294      20.491037     -760.3819     
     22000   2559.1479     -10442.398     -781.82338      21.170933     -760.65245    
     23000   3067.7399      12564.929     -777.18843      25.378336     -751.81009    
     24000   2667.3664     -7162.3631     -779.27061      22.066187     -757.20442    
     25000   2605.1612     -66611.084     -776.92927      21.551585     -755.37768    
     26000   2399.1646     -33535.766     -779.48881      19.847448     -759.64137    
     27000   3037.0628     -55505.159     -783.96374      25.124555     -758.83919    
     28000   1655.8465      27200.058     -782.66297      13.698237     -768.96473    
     29000   2392.0726     -33210.626     -781.34395      19.788778     -761.55518    
     30000   3011.0459     -61349.973     -779.18447      24.909326     -754.27514    
     31000   2272.1567      20795.77      -779.52769      18.796755     -760.73093    
     32000   2925.6639     -53125.849     -782.51807      24.202991     -758.31507    
     33000   2559.5039      12690.493     -781.5242       21.173878     -760.35033    
     34000   2192.2292     -41697.676     -777.90862      18.135543     -759.77308    
     35000   2451.0659     -47035.706     -778.96778      20.276809     -758.69097    
     36000   2830.7008     -61571.222     -780.04683      23.417395     -756.62944    
     37000   2642.3055     -5580.0624     -776.58252      21.858866     -754.72366    
     38000   2203.04        27329.663     -783.53435      18.224978     -765.30937    
     39000   1900.7316     -45644.03      -783.96578      15.724086     -768.2417     
     40000   2566.0232      14339.971     -778.75104      21.22781      -757.52323    
     41000   2098.6843      117332.76     -780.70678      17.361679     -763.3451     
     42000   2591.3975     -10854.516     -778.04158      21.437723     -756.60386    
     43000   2865.3177     -17147.644     -779.47648      23.703768     -755.77271    
     44000   2610.11        3128.5018     -784.27273      21.592524     -762.68021    
     45000   2646.0462     -3070.9905     -778.53273      21.889812     -756.64291    
     46000   2465.4478     -33312.921     -777.22223      20.395785     -756.82645    
     47000   2242.6754     -42961.467     -777.17976      18.552867     -758.6269     
     48000   2348.8387      33123.136     -782.23376      19.431119     -762.80264    
     49000   2047.9816      65903.039     -783.49656      16.942234     -766.55432    
     50000   2555.9361     -37296.34      -779.73535      21.144363     -758.59099    
     51000   2709.6664      48543.759     -778.45172      22.41612      -756.0356     
     52000   2798.6687     -3318.2554     -777.89121      23.152405     -754.73881    
     53000   2435.4415     -30072.176     -780.39058      20.147553     -760.24303    
     54000   2191.75        16406.529     -779.59305      18.131579     -761.46147    
     55000   2488.8606     -12729.905     -778.20731      20.589471     -757.61784    
     56000   2399.3626     -84365.717     -780.40545      19.849086     -760.55636    
     57000   2182.4235     -107.71059     -780.60931      18.054424     -762.55489    
     58000   2545.9871      36569.649     -783.17542      21.062059     -762.11336    
     59000   2598.0823      19288.062     -775.10068      21.493023     -753.60766    
     60000   2497.7183      8414.87       -780.51323      20.662747     -759.85048    
     61000   2355.8362      21360.546     -780.04077      19.489007     -760.55177    
     62000   2544.1026      15983.003     -781.05991      21.046469     -760.01344    
     63000   2706.1438      28017.475     -777.42623      22.386978     -755.03925    
     64000   2278.7527     -11876.613     -782.51407      18.851322     -763.66275    
     65000   2328.8645     -31787.33      -779.41104      19.265879     -760.14516    
     66000   2163.0954      6386.243      -774.98064      17.89453      -757.08611    
     67000   2062.2816      40307.13      -779.55769      17.060533     -762.49716    
     68000   2964.6438     -25940.117     -776.4623       24.525458     -751.93684    
     69000   2524.9393      6588.5006     -779.07495      20.887938     -758.18701    
     70000   2293.0032     -21873.768     -781.50579      18.969212     -762.53658    
     71000   2567.5446      931.98217     -782.78319      21.240396     -761.54279    
     72000   2483.6679     -10309.861     -777.98725      20.546514     -757.44074    
     73000   2801.3791      15245.769     -781.86194      23.174826     -758.68711    
     74000   2560.1615      45755.49      -774.02687      21.179318     -752.84756    
     75000   2503.2385      8967.3439     -778.62126      20.708414     -757.91284    
     76000   2413.8475     -50146.015     -781.05026      19.968914     -761.08134    
     77000   2551.6913     -51063.974     -779.17688      21.109247     -758.06763    
     78000   2299.8612      1881.5033     -774.28414      19.025945     -755.2582     
     79000   2599.5794      17368.028     -780.89315      21.505408     -759.38775    
     80000   2958.3911      62145.137     -776.9807       24.473732     -752.50697    
     81000   3058.9116      60104.053     -780.03862      25.305303     -754.73332    
     82000   2490.0894     -85450.237     -781.26819      20.599637     -760.66855    
     83000   2076.4887     -788.4928      -775.21346      17.178063     -758.0354     
     84000   2982.9962      16732.895     -780.75484      24.677281     -756.07756    
     85000   2439.8302     -21130.843     -783.85701      20.183859     -763.67315    
     86000   3134.8276     -8432.5658     -775.95313      25.933329     -750.0198     
     87000   2167.7654      18529.428     -779.49963      17.933163     -761.56647    
     88000   3010.1276     -50696.597     -778.57083      24.90173      -753.6691     
     89000   2386.7964      37471.075     -778.32121      19.745129     -758.57608    
     90000   2471.7758      16064.683     -778.00453      20.448134     -757.5564     
     91000   2651.1766      6980.2572     -776.6699       21.932254     -754.73765    
     92000   2714.098      -403.72175     -784.86144      22.452781     -762.40866    
     93000   2556.0957      55878.203     -780.73424      21.145683     -759.58856    
     94000   2300.9407     -29866.473     -778.73902      19.034875     -759.70415    
     95000   2831.286       53173.2       -781.72578      23.422236     -758.30355    
     96000   2417.8165     -54885.241     -773.35222      20.001748     -753.35047    
     97000   2367.2946      25348.133     -780.68152      19.583798     -761.09773    
     98000   2156.0085     -1982.9905     -776.79233      17.835902     -758.95643    
     99000   2772.5518      45060.501     -776.77809      22.936348     -753.84174    
    100000   2596.695      -12795.67      -778.67747      21.481547     -757.19592    
    101000   2619.2514     -15739.374     -774.32717      21.668148     -752.65903    
    102000   2573.9799     -57360.612     -780.03559      21.293633     -758.74196    
    103000   2750.4091      30738.086     -779.3685       22.75317      -756.61534    
    104000   2894.1096      13374.611     -779.05002      23.941954     -755.10807    
    105000   2567.5672      37495.844     -779.20284      21.240583     -757.96226    
    106000   2899.479       7750.6556     -777.98636      23.986373     -753.99999    
    107000   2264.8462      25002.269     -780.97268      18.736278     -762.2364     
    108000   2814.8589     -43885.349     -777.63256      23.286341     -754.34622    
    109000   2558.5882     -23727.598     -771.98453      21.166303     -750.81822    
    110000   1939.4316     -26705.503     -774.72274      16.044237     -758.6785     
    111000   2670.7381      21470.707     -780.39171      22.094079     -758.29763    
    112000   2531.3332      15278.821     -776.29654      20.940832     -755.35571    
    113000   2620.7599     -1629.7357     -780.81489      21.680628     -759.13426    
    114000   2732.4936     -54252.962     -774.81407      22.604961     -752.2091     
    115000   2959.5822      15629.78      -779.69312      24.483585     -755.20953    
    116000   2378.3905      44172.487     -780.16708      19.67559      -760.49149    
    117000   2220.8502      130017.04     -775.10837      18.372315     -756.73605    
    118000   2426.52        24994.433     -772.75146      20.073749     -752.67771    
    119000   2777.6588     -59944.006     -779.86582      22.978597     -756.88723    
    120000   2367.3824     -70651.11      -778.83971      19.584524     -759.25518    
    121000   2280.2541      24765.223     -778.63959      18.863742     -759.77585    
    122000   2624.8956     -27775.705     -774.3481       21.714841     -752.63326    
    123000   2623.1175      63759.939     -780.33468      21.700131     -758.63455    
    124000   2759.8502      9443.3286     -776.96981      22.831273     -754.13854    
    125000   2290.8139      7342.3838     -778.33704      18.9511       -759.38594    
    126000   2483.7885     -80415.254     -778.89306      20.547511     -758.34555    
    127000   2432.709      -71752.599     -782.81404      20.124949     -762.68909    
    128000   2365.9281     -42159.978     -776.09544      19.572494     -756.52295    
    129000   2706.6028     -46151.448     -775.2738       22.390776     -752.88302    
    130000   2624.311       1150.3795     -778.66402      21.710004     -756.95401    
    131000   2658.2571     -18474.881     -776.04151      21.990828     -754.05069    
    132000   2348.9147      8377.2817     -777.91812      19.431748     -758.48637    
    133000   2248.7696     -457.85282     -779.04521      18.603282     -760.44193    
    134000   2352.9119     -52589.399     -780.25166      19.464815     -760.78684    
    135000   2119.4558      9779.5448     -776.12477      17.533514     -758.59125    
    136000   3256.2317     -33177.719     -781.79884      26.937663     -754.86117    
    137000   2556.78        117156.04     -774.94634      21.151344     -753.795      
    138000   2691.6016      19785.479     -778.34607      22.266676     -756.0794     
    139000   2946.9063      50938.271     -782.57811      24.378722     -758.19938    
    140000   2670.8848     -45915.056     -778.46617      22.095294     -756.37087    
    141000   2091.818      -44543.081     -777.11388      17.304877     -759.80901    
    142000   2382.7817     -14504.922     -777.48299      19.711917     -757.77107    
    143000   2803.6891      22615.829     -778.97092      23.193936     -755.77699    
    144000   2656.1633      65292.971     -779.71803      21.973507     -757.74452    
    145000   3003.2983      4709.8144     -777.48532      24.845234     -752.64008    
    146000   2606.6036      23321.355     -778.43894      21.563517     -756.87543    
    147000   2291.2085      529.63976     -779.67853      18.954365     -760.72417    
    148000   2563.271      -25041.474     -776.90663      21.205042     -755.70159    
    149000   2404.0123     -4629.1968     -778.11035      19.887551     -758.2228     
    150000   2290.1321     -21687.737     -780.92346      18.94546      -761.978      
    151000   2655.4342     -82355.857     -775.65554      21.967476     -753.68806    
    152000   2267.8084     -69655.268     -781.51742      18.760783     -762.75663    
    153000   2225.8863      43345.137     -780.5397       18.413977     -762.12573    
    154000   2346.1872     -51623.907     -776.28144      19.409184     -756.87225    
    155000   2552.1202     -5861.6922     -776.72742      21.112795     -755.61462    
    156000   2173.723       63684.3       -780.94101      17.982448     -762.95856    
    157000   2521.4102     -156.60484     -775.78019      20.858742     -754.92144    
    158000   2220.0986     -4783.7237     -777.54686      18.366097     -759.18076    
    159000   2397.4907     -23431.193     -783.94338      19.8336       -764.10978    
    160000   2472.1905     -41413.332     -778.03922      20.451565     -757.58766    
    161000   2920.2321      1514.4893     -776.15781      24.158056     -751.99976    
    162000   2843.9041     -18419.191     -775.62146      23.526621     -752.09484    
    163000   3282.6629     -63068.182     -779.49275      27.156319     -752.33644    
    164000   2313.1504      47724.879     -777.5353       19.135882     -758.39942    
    165000   2505.437       19057.02      -779.6112       20.726601     -758.8846     
    166000   2441.8547     -15171.978     -777.66623      20.200607     -757.46563    
    167000   2837.173       35075.242     -776.73693      23.470938     -753.266      
    168000   2191.1185      10718.729     -776.54644      18.126355     -758.42008    
    169000   2355.6157      96744.673     -780.99992      19.487182     -761.51274    
    170000   2229.0723     -2695.6438     -774.95026      18.440333     -756.50993    
    171000   3070.1023      22318.902     -780.14147      25.39788      -754.7436     
    172000   2712.3929      10080.495     -777.5054       22.438675     -755.06672    
    173000   2553.218      -26876.855     -775.71042      21.121877     -754.58855    
    174000   2374.9069      24453.899     -776.02934      19.646772     -756.38257    
    175000   2238.8577     -10926.96      -776.87821      18.521284     -758.35693    
    176000   2705.5345     -23585.331     -776.97409      22.381938     -754.59215    
    177000   2517.9951     -22180.974     -782.40235      20.83049      -761.57186    
    178000   2912.7947     -37687.667     -775.0546       24.096529     -750.95807    
    179000   2750.5144     -67500.955     -781.48628      22.754041     -758.73224    
    180000   2375.8991      8890.3657     -776.60661      19.65498      -756.95163    
    181000   2583.8444      55129.111     -771.76259      21.375239     -750.38735    
    182000   2422.7981     -4623.8598     -776.51249      20.042959     -756.46953    
    183000   2531.1579     -15392.858     -777.33892      20.939382     -756.39954    
    184000   2656.5318     -66296.031     -780.7425       21.976556     -758.76594    
    185000   3005.3752     -13910.403     -775.63884      24.862415     -750.77642    
    186000   2740.8528      32974.433     -782.44542      22.674114     -759.77131    
    187000   2779.3388      43846.7       -773.41616      22.992495     -750.42367    
    188000   2502.6512     -20886.251     -779.46949      20.703556     -758.76594    
    189000   2830.922      -10397.128     -777.61497      23.419225     -754.19575    
    190000   2800.606       16073.965     -774.8808       23.168431     -751.71237    
    191000   2136.6809      75897.362     -779.95263      17.676011     -762.27661    
    192000   2344.5969      20534.059     -781.8233       19.396028     -762.42727    
    193000   2926.9477      28587.559     -778.64799      24.213611     -754.43437    
    194000   2353.9294     -5791.204      -781.10824      19.473233     -761.63501    
    195000   2994.7964      9027.6773     -781.01822      24.774901     -756.24332    
    196000   2224.1347     -91040.27      -773.1471       18.399487     -754.74761    
    197000   2697.9735     -40162.603     -775.89239      22.319389     -753.573      
    198000   2458.6192      10998.503     -779.85244      20.339295     -759.51315    
    199000   1978.1546     -47504.514     -778.47284      16.364579     -762.10826    
    200000   2867.1366     -6650.7533     -776.15553      23.718815     -752.43672    
    201000   3030.9119      28830.293     -775.64909      25.073671     -750.57542    
    202000   2717.6486      102799.48     -776.07121      22.482154     -753.58905    
    203000   3050.387       36897.956     -781.95213      25.234782     -756.71735    
    204000   2266.5588     -36453.695     -779.12492      18.750446     -760.37448    
    205000   2529.3264     -3780.4003     -783.33424      20.924231     -762.41001    
    206000   2410.4866      32506.792     -777.31037      19.941111     -757.36926    
    207000   2547.7274      25028.701     -777.21865      21.076455     -756.14219    
    208000   2408.0797      6994.326      -772.34216      19.921198     -752.42096    
    209000   2521.8416      12967.118     -780.41009      20.862311     -759.54778    
    210000   2582.8582      22816.668     -782.28446      21.36708      -760.91738    
    211000   3034.9128     -7804.0815     -777.62296      25.106769     -752.51619    
    212000   2432.5836     -16174.69      -774.87923      20.123911     -754.75532    
    213000   2093.8575      13009.14      -771.09257      17.321749     -753.77082    
    214000   2864.5787      27278.768     -781.05288      23.697655     -757.35522    
    215000   2662.423      -2706.3126     -778.55469      22.025292     -756.52939    
    216000   2663.2141      64757.607     -781.87548      22.031837     -759.84364    
    217000   2123.81       -22466.903     -775.48816      17.569536     -757.91863    
    218000   2415.4276      47287.246     -777.35487      19.981985     -757.37289    
    219000   2657.313      -19368.055     -781.88796      21.983018     -759.90494    
    220000   3242.8873     -5556.4428     -773.38792      26.827269     -746.56065    
    221000   2364.9759      19314.87      -779.63732      19.564616     -760.07271    
    222000   2319.8257      38610.295     -779.86616      19.191104     -760.67505    
    223000   2461.2492     -7593.5752     -777.72341      20.361051     -757.36235    
    224000   2349.9351      6070.3767     -782.46233      19.440189     -763.02214    
    225000   2316.6624      47941.918     -780.41753      19.164935     -761.2526     
    226000   2848.5734     -60961.552     -779.09525      23.565249     -755.53       
    227000   2681.9778      11122.309     -773.78973      22.187062     -751.60267    
    228000   2433.9246      147.46674     -779.90117      20.135005     -759.76617    
    229000   2579.6766      17243.557     -779.38375      21.34076      -758.04299    
    230000   2288.2752      15349.202     -780.8486       18.930098     -761.91851    
    231000   2464.9249      7688.4129     -774.8276       20.391459     -754.43614    
    232000   2543.7526      37441.615     -777.40691      21.043573     -756.36333    
    233000   2706.2551     -26418.362     -779.72069      22.387899     -757.33279    
    234000   2642.5091      24319.588     -776.12357      21.860551     -754.26301    
    235000   2594.0187     -12026.451     -775.89755      21.459407     -754.43814    
    236000   2188.134      -38367.85      -776.73912      18.101665     -758.63746    
    237000   2436.625       13740.165     -777.01143      20.157344     -756.85408    
    238000   2830.2649     -2414.9068     -779.98885      23.413789     -756.57506    
    239000   3035.6832      4459.8679     -783.56361      25.113142     -758.45046    
    240000   2958.8879     -25697.101     -779.50433      24.477842     -755.02649    
    241000   2339.3057      25407.693     -780.5162       19.352256     -761.16395    
    242000   2330.9449     -27165.799     -777.52548      19.28309      -758.24239    
    243000   2646.997      -67885.376     -777.54274      21.897678     -755.64506    
    244000   2818.5843     -20745.108     -774.56392      23.317159     -751.24676    
    245000   1803.7437     -50692.097     -778.15463      14.921739     -763.23289    
    246000   3011.36       -20867.107     -777.1656       24.911925     -752.25367    
    247000   2218.9869     -35510         -778.75818      18.3569       -760.40128    
    248000   2477.1261     -10293.392     -779.90644      20.492396     -759.41405    
    249000   2518.8974      52777.55      -777.87162      20.837955     -757.03367    
    250000   3174.8217     -29839.582     -777.44429      26.264187     -751.18011    
    251000   2820.9218     -24867.409     -774.89884      23.336497     -751.56235    
    252000   2465.3415     -77237.841     -778.55925      20.394905     -758.16434    
    253000   2280.6132     -34310.842     -778.36395      18.866713     -759.49724    
    254000   2794.0933      72460.501     -775.61942      23.114554     -752.50487    
    255000   2379.5767     -14128.162     -778.17393      19.685404     -758.48852    
    256000   2723.868      -14321.764     -776.66416      22.533605     -754.13056    
    257000   2696.0889      25968.003     -778.15648      22.303798     -755.85268    
    258000   2773.3733      32682.09      -776.95744      22.943145     -754.0143     
    259000   2212.6335     -11430.754     -773.95257      18.304341     -755.64822    
    260000   3127.6007     -21702.728     -783.09251      25.873544     -757.21897    
    261000   2277.9219     -425.17057     -777.63382      18.844449     -758.78938    
    262000   2731.8594     -30784.464     -777.05599      22.599715     -754.45628    
    263000   2679.4789     -39669.045     -775.15058      22.166389     -752.98419    
    264000   2587.9922      6404.9869     -778.56386      21.409552     -757.15431    
    265000   2613.4869     -15295.034     -778.73642      21.620461     -757.11596    
    266000   2067.7371     -34244.083     -775.34002      17.105664     -758.23436    
    267000   2987.2661     -44473.806     -781.84704      24.712605     -757.13444    
    268000   2617.1848      16942.688     -779.39062      21.651052     -757.73957    
    269000   2531.8824     -4423.3916     -775.24269      20.945375     -754.29731    
    270000   2439.6028      60579.326     -777.91075      20.181979     -757.72877    
    271000   2919.5511     -21243.021     -778.45394      24.152422     -754.30152    
    272000   2869.8984     -22307.27      -771.87593      23.741663     -748.13427    
    273000   3244.88       -3699.2703     -776.52471      26.843755     -749.68095    
    274000   2409.9893     -34110.111     -776.57942      19.936996     -756.64243    
    275000   2686.5947      32544.475     -773.13277      22.225255     -750.90751    
    276000   2850.466       43174.831     -780.14378      23.580905     -756.56288    
    277000   2406.6398      24281.937     -771.85919      19.909287     -751.9499     
    278000   2282.5892     -52215.573     -775.71156      18.88306      -756.8285     
    279000   2579.758      -36020.243     -772.25861      21.341433     -750.91718    
    280000   2508.1968     -15247.939     -775.83145      20.749432     -755.08202    
    281000   2837.2746     -33354.636     -778.50948      23.471778     -755.03771    
    282000   2967.751      -61494.574     -778.29705      24.551163     -753.74589    
    283000   2181.5188      6881.738      -776.68512      18.04694      -758.63818    
    284000   2791.4237     -41005.777     -775.82856      23.092469     -752.73609    
    285000   2604.7912     -54432.817     -781.69013      21.548524     -760.14161    
    286000   2504.3099     -39716.512     -777.50883      20.717278     -756.79156    
    287000   3056.3373      60417.559     -775.01222      25.284007     -749.72821    
    288000   2832.7223     -8981.6896     -776.71496      23.434118     -753.28084    
    289000   2563.1554      111321.76     -776.93074      21.204086     -755.72665    
    290000   2688.935       2621.9593     -782.27925      22.244616     -760.03463    
    291000   2745.3597     -4343.7162     -773.30422      22.711398     -750.59282    
    292000   2802.5685     -19000.873     -775.56536      23.184666     -752.38069    
    293000   2679.361       709.34786     -779.69633      22.165413     -757.53092    
    294000   2206.3658      48001.231     -775.38538      18.25249      -757.13289    
    295000   2626.5163     -14565.825     -773.85339      21.728248     -752.12515    
    296000   2746.1668     -53257.817     -774.37394      22.718075     -751.65587    
    297000   2446.4355      15260.58      -772.202        20.238503     -751.9635     
    298000   2350.0295      13601.502     -774.51768      19.44097      -755.07671    
    299000   2890.0017      27590.321     -774.74312      23.90797      -750.83515    
    300000   3070.9042      25491.349     -775.42086      25.404514     -750.01635    
    301000   2578.3039      13547.374     -771.07332      21.329404     -749.74391    
    302000   2503.7663      50188.205     -780.81625      20.71278      -760.10347    
    303000   2653.9901      35522.63      -776.27019      21.955529     -754.31466    
    304000   2365.5348      18842.584     -767.87897      19.569239     -748.30973    
    305000   2708.0913     -6080.4794     -778.05511      22.40309      -755.65202    
    306000   3088.2567      13180.398     -777.11821      25.548064     -751.57015    
    307000   2676.0194     -72000.701     -777.91311      22.13777      -755.77534    
    308000   2858.1471     -38699.299     -783.34969      23.644449     -759.70524    
    309000   2469.4254     -26933.445     -771.07144      20.428691     -750.64275    
    310000   2778.8233      7605.2252     -778.1841       22.988231     -755.19586    
    311000   2745.4698      15629.868     -775.845        22.712309     -753.13269    
    312000   2664.6651      2304.8123     -777.85013      22.04384      -755.80629    
    313000   3011.8847      42508.248     -776.28673      24.916266     -751.37046    
    314000   2425.4781     -74642.871     -783.03447      20.065129     -762.96934    
    315000   2230.5363     -38283.023     -784.1834       18.452444     -765.73096    
    316000   1948.8515     -53480.972     -779.16721      16.122165     -763.04505    
    317000   2659.1199      16770.964     -778.21698      21.997966     -756.21901    
    318000   2808.8944     -60853.85      -781.08202      23.236998     -757.84503    
    319000   2861.7964     -69401.784     -772.91096      23.674638     -749.23632    
    320000   2869.5559     -35742.785     -776.76787      23.73883      -753.02904    
    321000   2756.8102     -16017.602     -777.46485      22.806124     -754.65872    
    322000   2447.79       -51180.74      -780.9112       20.249708     -760.66149    
    323000   2243.051       30395.443     -771.33756      18.555974     -752.78158    
    324000   3039.0972      31896.827     -778.67551      25.141385     -753.53412    
    325000   2831.8932     -34056.685     -780.10932      23.427259     -756.68206    
    326000   2831.9433     -82134.415     -777.19661      23.427674     -753.76894    
    327000   3224.4577     -65345.533     -771.33062      26.674808     -744.65582    
    328000   2646.5086      689.1194      -776.74917      21.893638     -754.85553    
    329000   2320.9662     -50176.796     -781.98302      19.20054      -762.78248    
    330000   3125.6217      22062.447     -782.96741      25.857172     -757.11024    
    331000   2360.4269      11545.22      -781.79556      19.526984     -762.26858    
    332000   3056.482      -28223.836     -774.97391      25.285204     -749.68871    
    333000   3096.987      -21571.831     -771.21784      25.620288     -745.59755    
    334000   2489.2542     -7277.966      -773.90152      20.592727     -753.30879    
    335000   2855.4675     -35649.58      -780.23783      23.622281     -756.61555    
    336000   2431.3281      28777.109     -775.74367      20.113525     -755.63014    
    337000   2808.8007     -31266.611     -775.94923      23.236223     -752.71301    
    338000   2940.2591     -16487.876     -774.65083      24.323732     -750.3271     
    339000   2601.2702     -32969.45      -775.36696      21.519396     -753.84756    
    340000   2605.2363     -37520.413     -778.29601      21.552207     -756.7438     
    341000   2736.5068      13865.441     -778.68032      22.638161     -756.04216    
    342000   2808.4294     -24930.771     -780.04764      23.233152     -756.81448    
    343000   2588.4485     -16658.014     -777.55557      21.413327     -756.14224    
    344000   2770.4853     -2943.1795     -771.62695      22.919254     -748.7077     
    345000   2635.6065      58748.1       -776.61334      21.803448     -754.8099     
    346000   2630.4934     -12604.744     -777.12954      21.761149     -755.36839    
    347000   2965.8685     -74715.667     -781.07545      24.53559      -756.53986    
    348000   2410.986      -61890.352     -776.08936      19.945241     -756.14412    
    349000   2419.7258      11361.033     -777.39952      20.017543     -757.38198    
    350000   2894.2883     -60758.456     -777.33146      23.943432     -753.38803    
    351000   2389.7831      14040.975     -773.78493      19.769837     -754.0151     
    352000   2860.6245     -90670.064     -779.28405      23.664943     -755.61911    
    353000   2576.1042      8313.3119     -779.56581      21.311207     -758.25461    
    354000   2517.9594      57225.394     -775.76034      20.830195     -754.93015    
    355000   2642.0413      18331.735     -777.08865      21.856681     -755.23197    
    356000   2520.2154      35324.417     -777.07752      20.848858     -756.22867    
    357000   2807.1495      2460.3983     -773.93616      23.222564     -750.7136     
    358000   2884.1947     -52128.981     -777.96672      23.859931     -754.10678    
    359000   2925.1522     -6397.8482     -778.74886      24.198758     -754.55011    
    360000   2235.7258      44225.567     -779.70042      18.495376     -761.20504    
    361000   2614.0193      36447.295     -781.23593      21.624865     -759.61106    
    362000   2813.0654     -13365.17      -774.42208      23.271503     -751.15057    
    363000   2453.4758      17341.969     -774.73662      20.296745     -754.43987    
    364000   2598.6218     -30701.546     -773.90269      21.497487     -752.4052     
    365000   2876.6193      66486.044     -777.59572      23.797263     -753.79845    
    366000   2709.8414     -28183.879     -778.79035      22.417567     -756.37279    
    367000   2925.723       3513.3414     -777.3673       24.20348      -753.16382    
    368000   2359.6968      31338.447     -773.27943      19.520944     -753.75848    
    369000   2448.7209     -44083.276     -772.55488      20.257409     -752.29747    
    370000   2596.0043      30369.999     -779.59256      21.475833     -758.11673    
    371000   2585.6762      13530.242     -773.80556      21.390392     -752.41517    
    372000   3145.7169      32529.248     -777.92807      26.023413     -751.90465    
    373000   2781.9646     -41680.801     -777.28322      23.014217     -754.269      
    374000   2495.6562      25492.096     -779.63607      20.645689     -758.99039    
    375000   3243.3902      44614.086     -777.33727      26.83143      -750.50584    
    376000   2776.135      -45268.385     -774.69815      22.965991     -751.73216    
    377000   2895.0708      27944.204     -780.213        23.949906     -756.2631     
    378000   2744.9919     -14784.141     -775.35076      22.708355     -752.6424     
    379000   2832.6366     -6935.6572     -774.02133      23.433409     -750.58793    
    380000   2874.1594      16665.011     -778.65467      23.776913     -754.87775    
    381000   2801.5245      32347.11      -774.9327       23.17603      -751.75667    
    382000   2746.6902     -10622.178     -779.08644      22.722405     -756.36403    
    383000   2888.4899     -5616.5416     -773.39359      23.895464     -749.49813    
    384000   2530.1523      41959.983     -779.96316      20.931062     -759.0321     
    385000   2967.1415      63925.823     -774.08503      24.546121     -749.53891    
    386000   2958.0303      92506.677     -772.19799      24.470748     -747.72724    
    387000   2984.9868     -34673.552     -777.76928      24.693749     -753.07553    
    388000   2811.2232      47062.26      -778.15984      23.256263     -754.90358    
    389000   2496.9412      67168.993     -779.4323       20.656319     -758.77598    
    390000   2639.9278      106128.45     -772.24978      21.839197     -750.41058    
    391000   2734.894       32094.337     -773.02344      22.624819     -750.39862    
    392000   2854.3008      41334.268     -775.83014      23.612629     -752.21751    
    393000   3005.1544     -8962.7187     -781.59721      24.860588     -756.73662    
    394000   2446.4203     -48647.125     -776.70066      20.238377     -756.46228    
    395000   2444.4012     -84813.325     -773.7648       20.221674     -753.54313    
    396000   2801.2793      1127.0875     -775.22493      23.174002     -752.05093    
    397000   3082.2813      33163.864     -781.15258      25.498632     -755.65395    
    398000   2374.3327      2308.57       -777.7165       19.642021     -758.07448    
    399000   3185.9421     -27424.57      -776.05446      26.356182     -749.69828    
    400000   2772.7112     -1802.9287     -775.47364      22.937667     -752.53597    
    401000   2276.606       7704.2489     -774.93514      18.833563     -756.10157    
    402000   2810.696       47132.851     -777.00758      23.251902     -753.75568    
    403000   2773.0686     -41292.624     -773.23199      22.940624     -750.29136    
    404000   2559.9521      32637.674     -778.38154      21.177586     -757.20396    
    405000   2400.3914      93140.776     -777.62196      19.857596     -757.76436    
    406000   2411.9829      99509.47      -776.44375      19.953488     -756.49027    
    407000   2392.9051      99708.851     -772.59882      19.795665     -752.80316    
    408000   2741.5348     -13948.011     -773.24894      22.679756     -750.56919    
    409000   2539.06        65415.463     -772.49567      21.004753     -751.49092    
    410000   2563.6802     -48057.456     -778.97773      21.208427     -757.7693     
    411000   2662.4595     -25447.716     -774.64669      22.025594     -752.6211     
    412000   2506.8614      27936.157     -780.78024      20.738385     -760.04185    
    413000   2531.5133      14152.162     -776.40456      20.942322     -755.46224    
    414000   3066.5529      461.32828     -772.25034      25.368517     -746.88182    
    415000   3077.8288     -22263.625     -776.98129      25.461798     -751.5195     
    416000   2798.2059     -37377         -776.4821       23.148576     -753.33352    
    417000   2315.4207      28466.38      -774.38863      19.154663     -755.23396    
    418000   2860.2881      90927.388     -782.00011      23.66216      -758.33795    
    419000   2357.9381     -31459.718     -772.36518      19.506395     -752.85879    
    420000   2572.7008     -34117.06      -776.71103      21.283051     -755.42798    
    421000   2721.2088     -23099.366     -774.59511      22.511606     -752.0835     
    422000   2438.4973      32355.56      -781.07343      20.172833     -760.9006     
    423000   2201.6571      83263.213     -773.24514      18.213537     -755.0316     
    424000   2645.8704     -50752.076     -779.57993      21.888358     -757.69157    
    425000   2732.475      -44775.63      -779.0142       22.604807     -756.40939    
    426000   2927.9171      3035.435      -771.43316      24.221632     -747.21153    
    427000   2601.5022      3949.9079     -769.74807      21.521315     -748.22675    
    428000   3032.8766      30235.07      -777.70954      25.089924     -752.61962    
    429000   2772.1693     -34037.294     -779.99738      22.933184     -757.0642     
    430000   2241.6934     -3106.3979     -779.13467      18.544743     -760.58993    
    431000   2726.2478     -117.23037     -775.36624      22.553292     -752.81295    
    432000   3230.8088      5608.3673     -780.38495      26.727348     -753.6576     
    433000   2804.3274      53651.809     -781.28311      23.199217     -758.08389    
    434000   2256.7033      44323.861     -777.17053      18.668915     -758.50161    
    435000   2829.3956      11835.923     -773.76932      23.406597     -750.36272    
    436000   3094.6287      9876.7476     -771.76669      25.600778     -746.16591    
    437000   2838.8837      41722.268     -775.65463      23.485089     -752.16954    
    438000   2587.714      -54025.718     -778.75895      21.40725      -757.3517     
    439000   2512.5159     -14082.391     -774.27622      20.785163     -753.49106    
    440000   2798.7077      17699.633     -776.35826      23.152728     -753.20554    
    441000   2922.1122      12347.181     -777.19858      24.173609     -753.02497    
    442000   2640.9645     -15024.74      -779.87268      21.847773     -758.0249     
    443000   2553.6281      30336.311     -774.63742      21.12527      -753.51215    
    444000   2562.718      -20706.391     -777.15907      21.200467     -755.9586     
    445000   2225.5806     -21624.412     -772.32438      18.411448     -753.91293    
    446000   2516.2341      34408.119     -779.75698      20.815922     -758.94106    
    447000   2430.9493     -54192.475     -769.3071       20.110391     -749.19671    
    448000   2700.4315     -19668.148     -777.75934      22.339722     -755.41962    
    449000   2653.3807      26163.332     -774.44654      21.950488     -752.49606    
    450000   2770.1956     -10017.827     -785.48136      22.916856     -762.5645     
    451000   2537.7906     -23321.429     -774.35035      20.994251     -753.3561     
    452000   2505.6375     -24790.692     -778.83514      20.72826      -758.10688    
    453000   2426.667      -57411.13      -772.51117      20.074965     -752.4362     
    454000   3042.8778     -21821.458     -775.27004      25.172661     -750.09737    
    455000   3157.4766     -62337.137     -772.57898      26.120696     -746.45829    
    456000   2969.1637     -42121.963     -771.50732      24.56285      -746.94447    
    457000   3285.6125      23540.807     -775.69482      27.18072      -748.5141     
    458000   2442.1666      18228.183     -771.01184      20.203187     -750.80865    
    459000   2841.6806      36790.03      -770.37446      23.508227     -746.86624    
    460000   2672.9287     -48614.91      -778.67723      22.112202     -756.56503    
    461000   2642.6183     -33284.315     -771.46019      21.861454     -749.59874    
    462000   2438.2768     -28249.76      -777.75488      20.171008     -757.58387    
    463000   2819.6127      11766.1       -775.22213      23.325667     -751.89647    
    464000   3771.339       48427.143     -777.18542      31.198965     -745.98645    
    465000   2522.2331      33309.38      -776.06635      20.86555      -755.2008     
    466000   2732.2583     -43017.896     -774.57161      22.603015     -751.9686     
    467000   3193.7163     -44203.664     -781.22587      26.420495     -754.80537    
    468000   2608.9371      23626.045     -779.2165       21.582822     -757.63368    
    469000   2701.8712      27994.908     -773.17856      22.351633     -750.82693    
    470000   2445.2885     -28191.218     -781.45226      20.229014     -761.22325    
    471000   2770.8205      33583.932     -779.96349      22.922026     -757.04147    
    472000   2685.414       73925.936     -778.25211      22.215488     -756.03662    
    473000   2711.567      -5414.5787     -781.35388      22.431843     -758.92204    
    474000   3757.4415     -44493.8       -778.58112      31.083996     -747.49712    
    475000   2519.5074     -78656.087     -775.23377      20.843001     -754.39077    
    476000   2534.3142     -46626.396     -776.50968      20.965493     -755.54419    
    477000   2594.4712      84820.415     -777.40318      21.463151     -755.94003    
    478000   2641.91        31191.669     -771.84912      21.855595     -749.99352    
    479000   2262.8206     -29494.951     -772.59574      18.719521     -753.87622    
    480000   2425.614      -82570.395     -777.20336      20.066254     -757.13711    
    481000   3238.6403     -17301.693     -776.41329      26.792135     -749.62115    
    482000   2736.802       24721.321     -776.45554      22.640603     -753.81494    
    483000   2231.5694     -5752.1384     -782.84853      18.460991     -764.38754    
    484000   2662.5728      3351.0425     -783.6013       22.026531     -761.57477    
    485000   3284.449      -43533.949     -776.81678      27.171095     -749.64568    
    486000   2169.6511      37271.809     -770.87986      17.948763     -752.9311     
    487000   3397.7612     -38424.151     -777.79741      28.108487     -749.68892    
    488000   2492.454      -50250.532     -775.3317       20.619198     -754.7125     
    489000   2426.9562     -40002.398     -781.53016      20.077358     -761.45281    
    490000   2430.5374      11413.498     -777.39945      20.106983     -757.29246    
    491000   2829.2919      16749.712     -772.98264      23.405739     -749.5769     
    492000   2716.0705      6385.011      -778.76164      22.469098     -756.29254    
    493000   2385.6525      65533.935     -774.94462      19.735667     -755.20895    
    494000   3124.4397      42198.882     -775.86753      25.847394     -750.02013    
    495000   2664.0781      15571.73      -773.87828      22.038984     -751.83929    
    496000   2600.4068     -32388.462     -774.51147      21.512253     -752.99921    
    497000   2828.6417     -39836.547     -777.14692      23.400361     -753.74656    
    498000   2287.9975      35870.473     -774.63791      18.927801     -755.7101     
    499000   2504.1794      143007.52     -772.50276      20.716198     -751.78656    
    500000   2587.1311      22365.077     -772.7308       21.402428     -751.32837    
    501000   3401.8527      30573.872     -779.12991      28.142334     -750.98758    
    502000   2581.279       61507.095     -776.3424       21.354016     -754.98838    
    503000   3203.0443      65799.185     -779.88969      26.497662     -753.39203    
    504000   2896.0343      11943.726     -773.845        23.957876     -749.88713    
    505000   2299.5175      45188.533     -773.26166      19.023102     -754.23856    
    506000   2879.0368      63951.526     -779.53496      23.817262     -755.7177     
    507000   2329.2552      49780.195     -773.78075      19.269111     -754.51164    
    508000   2515.2414      34002.844     -773.21199      20.80771      -752.40428    
    509000   2129.6421     -75623.597     -777.77006      17.617782     -760.15227    
    510000   2848.152      -18394.593     -772.81243      23.561763     -749.25067    
    511000   2646.0996     -4824.6693     -773.92659      21.890254     -752.03634    
    512000   2468.2661     -13675.099     -770.84133      20.4191       -750.42223    
    513000   3110.9831     -54100.935     -774.46259      25.736072     -748.72652    
    514000   2718.8571      14489.918     -779.55319      22.492151     -757.06104    
    515000   3390.6092     -7192.2804     -776.58645      28.04932      -748.53713    
    516000   2830.9533      59405.352     -777.41499      23.419484     -753.9955     
    517000   3133.1798      93392.621     -770.66231      25.919698     -744.74261    
    518000   3017.0107      15870.979     -779.74241      24.958672     -754.78374    
    519000   2929.7885      39120.663     -783.74233      24.237113     -759.50522    
    520000   2539.1758      14862.079     -773.73013      21.005711     -752.72442    
    521000   2460.761       45402.513     -775.59651      20.357012     -755.2395     
    522000   2440.7644     -51190.445     -772.51313      20.191588     -752.32155    
    523000   2521.1838     -22383.629     -771.82044      20.856869     -750.96357    
    524000   2273.0883      99804         -773.3789       18.804462     -754.57444    
    525000   2752.1732     -43159.471     -778.44248      22.767764     -755.67471    
    526000   2695.3316     -42390.901     -775.22313      22.297533     -752.9256     
    527000   2896.9678      24278.673     -775.6169       23.965598     -751.6513     
    528000   2557.0243      36193.343     -772.03619      21.153366     -750.88282    
    529000   2723.7039     -55361.341     -775.41281      22.532247     -752.88056    
    530000   2424.4544     -28164.947     -777.38847      20.056661     -757.33181    
    531000   2668.1991      27128.085     -775.88489      22.073075     -753.81181    
    532000   3338.5085      13768.277     -776.37634      27.61831      -748.75803    
    533000   2625.857      -23840.178     -774.83489      21.722794     -753.11209    
    534000   3200.5444     -4704.6146     -776.30852      26.476982     -749.83154    
    535000   2906.1575     -69870.885     -777.35985      24.041622     -753.31823    
    536000   2770.5924     -59895.475     -776.43932      22.920139     -753.51919    
    537000   2571.9813     -24359.507     -775.75916      21.277099     -754.48206    
    538000   2639.7013     -21226.504     -773.55939      21.837323     -751.72206    
    539000   2526.8836     -43566.645     -775.91719      20.904021     -755.01317    
    540000   2672.6902     -20232.643     -779.51392      22.110228     -757.40369    
    541000   3123.6516      16927.91      -774.3512       25.840874     -748.51033    
    542000   2339.6558     -53626.322     -773.89825      19.355152     -754.5431     
    543000   3280.9796      41220.982     -775.70547      27.142394     -748.56307    
    544000   2625.2476     -18753.956     -778.05968      21.717753     -756.34193    
    545000   2694.9524     -7532.1355     -776.32998      22.294396     -754.03558    
    546000   3200.3641      45648.849     -774.85057      26.47549      -748.37508    
    547000   2989.4066     -21767.142     -772.20785      24.730313     -747.47754    
    548000   2699.4052     -38350.794     -777.71968      22.331232     -755.38845    
    549000   2904.0115      3912.3941     -776.04926      24.023869     -752.02539    
    550000   3448.1262     -42129.441     -772.85076      28.525139     -744.32562    
    551000   2534.2961      60397.581     -771.88543      20.965342     -750.92009    
    552000   2776.5365      62811.058     -776.30085      22.969313     -753.33154    
    553000   2746.7024      3352.4373     -777.95046      22.722505     -755.22796    
    554000   3376.4191      21785.827     -776.49563      27.931931     -748.5637     
    555000   2366.6411      14854.195     -768.40378      19.578392     -748.82538    
    556000   2788.4004      46858.312     -782.55818      23.067458     -759.49072    
    557000   2693.04        36764.541     -771.67282      22.278575     -749.39425    
    558000   3046.1328     -58510.231     -774.58049      25.199589     -749.3809     
    559000   3089.7857     -38834.6       -774.52839      25.560713     -748.96767    
    560000   3322.5831     -26688.802     -774.64629      27.486565     -747.15972    
    561000   2526.5064     -19913.722     -770.60085      20.900902     -749.69995    
    562000   2393.9393      10988.988     -777.00028      19.804221     -757.19606    
    563000   2961.1101      54586.635     -778.4732       24.496226     -753.97698    
    564000   2461.7952      17601.602     -782.65458      20.365568     -762.28901    
    565000   2620.111      -10091.1       -774.72662      21.675259     -753.05136    
    566000   2929.9366     -24761.071     -779.18018      24.238338     -754.94184    
    567000   2968.6314      5687.307      -775.89693      24.558446     -751.33848    
    568000   2819.3287     -8663.3191     -772.88102      23.323317     -749.5577     
    569000   3003.137       8548.7575     -771.53981      24.843899     -746.69591    
    570000   2988.1152     -73171.667     -771.3998       24.719629     -746.68017    
    571000   2852.2551      58083.074     -778.64523      23.595706     -755.04953    
    572000   2841.6995     -1571.9599     -774.50709      23.508383     -750.9987     
    573000   2757.6217     -22501.334     -772.72289      22.812837     -749.91005    
    574000   2991.2924      10514.644     -778.53184      24.745913     -753.78592    
    575000   2570.0173     -8946.9872     -777.11569      21.260852     -755.85484    
    576000   2575.4704     -586.82381     -774.47267      21.305963     -753.1667     
    577000   3134.3437     -14335.612     -777.07868      25.929326     -751.14935    
    578000   2420.8995     -11307.636     -781.96911      20.027252     -761.94186    
    579000   2850.6123      32807.067     -769.75877      23.582116     -746.17665    
    580000   2706.8877     -3945.7827     -771.29708      22.393132     -748.90395    
    581000   2676.6001      7871.8968     -772.57049      22.142574     -750.42791    
    582000   2314.7611      41060.715     -778.27664      19.149207     -759.12743    
    583000   3105.6345     -51370.113     -771.82532      25.691825     -746.13349    
    584000   3057.7366      20262.679     -772.44487      25.295582     -747.14929    
    585000   2492.7595      35651.09      -774.7124       20.621725     -754.09067    
    586000   2378.4418     -13386.02      -781.27135      19.676015     -761.59533    
    587000   2529.0249     -28750.841     -779.73442      20.921736     -758.81268    
    588000   3103.5958     -52667.345     -774.50367      25.67496      -748.82871    
    589000   2487.8131     -35818.159     -770.25953      20.580805     -749.67872    
    590000   3097.7292     -39839.049     -776.03019      25.626427     -750.40376    
    591000   2906.6969     -89957.933     -776.93344      24.046084     -752.88736    
    592000   2525.7998     -17042.222     -775.15293      20.895056     -754.25787    
    593000   2515.8145     -32929.623     -783.1872       20.812451     -762.37474    
    594000   2575.8892     -34135.746     -777.13484      21.309428     -755.82541    
    595000   2712.81       -14915.087     -770.41695      22.442126     -747.97482    
    596000   2844.5021      21388.808     -772.98045      23.531568     -749.44888    
    597000   3075.5456      15450.17      -774.97966      25.44291      -749.53675    
    598000   2740.7716      22162.357     -776.21168      22.673442     -753.53824    
    599000   2849.6702      25717.043     -772.80287      23.574322     -749.22855    
    600000   2740.2725      1711.2799     -771.96979      22.669313     -749.30047    
    601000   3104.8071     -45423.769     -775.97259      25.684981     -750.28761    
    602000   3216.1542      15046.811     -772.37643      26.606116     -745.77031    
    603000   2700.8707     -48096.002     -773.62733      22.343356     -751.28397    
    604000   2330.6771     -69333.765     -775.74725      19.280874     -756.46638    
    605000   3115.1982     -39579.523     -776.71627      25.770943     -750.94533    
    606000   2827.8282     -30092.364     -769.76064      23.393631     -746.36701    
    607000   2814.7465      53105.428     -775.84737      23.28541      -752.56196    
    608000   2244.8963      33043.748     -775.12805      18.571239     -756.55681    
    609000   2528.1592     -4457.5572     -779.66519      20.914574     -758.75062    
    610000   2213.8832      27376.226     -781.19543      18.314679     -762.88075    
    611000   2715.6796     -19844.53      -773.84566      22.465865     -751.3798     
    612000   2676.7349     -7655.9571     -777.16701      22.143689     -755.02333    
    613000   2539.1939     -17129.16      -772.9773       21.005861     -751.97144    
    614000   2655.6987      21737.426     -773.54282      21.969664     -751.57316    
[...]
    762000   2947.2625     -25928.071     -777.80608      24.381669     -753.42441    
    763000   2333.0105      56953.066     -777.86927      19.300178     -758.56909    
    764000   2989.6862     -32528.426     -777.65444      24.732626     -752.92181    
    765000   2295.9395      35040.509     -774.87716      18.993502     -755.88366    
    766000   3488.9921     -5501.966      -772.12383      28.863208     -743.26063    
    767000   3096.8644      14521.162     -779.42334      25.619273     -753.80406    
    768000   2515.7267      12260.079     -779.69648      20.811725     -758.88475    
    769000   2694.9469      47212.182     -778.3412       22.294351     -756.04684    
    770000   3514.1995      11280.308     -773.51867      29.07174      -744.44693    
    771000   3411.1429      16325.112     -767.15367      28.219189     -738.93448    
    772000   2869.7449      34060.578     -774.49555      23.740393     -750.75516    
    773000   2649.1187     -14092.402     -773.76698      21.91523      -751.85175    
    774000   2093.5692      89261.992     -775.74479      17.319364     -758.42542    
    775000   2631.1204     -39453.828     -770.12254      21.766337     -748.35621    
    776000   2604.8604      21937.784     -776.13206      21.549097     -754.58297    
    777000   2978.1823      27384.244     -779.92713      24.637457     -755.28968    
    778000   3010.3869     -26141.658     -779.41017      24.903875     -754.50629    
    779000   2827.9935     -2438.2745     -776.95517      23.394999     -753.56017    
    780000   2672.7987     -31476.616     -777.03409      22.111127     -754.92297    
    781000   3038.4955      13247.09      -773.87244      25.136408     -748.73604    
    782000   2838.3929     -53636.966     -764.3287       23.481029     -740.84767    
    783000   2595.6242     -22538.681     -777.21956      21.472689     -755.74687    
    784000   2627.5912     -18195.12      -772.98041      21.73714      -751.24327    
    785000   2812.2094     -7329.9834     -776.1914       23.264422     -752.92698    
    786000   2550.7144      29394.31      -768.7214       21.101166     -747.62023    
    787000   2368.8919      39339.515     -767.05702      19.597012     -747.46       
    788000   3054.4604     -543.90054     -775.79862      25.26848      -750.53014    
    789000   2876.2369      30897.978     -769.25173      23.794099     -745.45763    
    790000   3151.4711     -37160.946     -771.96904      26.071015     -745.89802    
    791000   2857.9897      59760.477     -764.76683      23.643146     -741.12369    
    792000   3069.0495      114991.74     -770.1871       25.38917      -744.79793    
    793000   3302.0092     -34159.988     -771.44418      27.316364     -744.12781    
    794000   3200.7124      6227.0923     -767.68395      26.478372     -741.20558    
    795000   3043.9894     -29773.156     -769.97436      25.181857     -744.7925     
    796000   2753.3171      33655.607     -775.51169      22.777227     -752.73446    
    797000   3138.6097      38743.075     -776.87653      25.964617     -750.91191    
    798000   2388.7935     -12027.741     -770.47997      19.761651     -750.71832    
    799000   2502.2551      48260.56      -769.96366      20.700279     -749.26338    
    800000   2846.8829      621.56657     -776.29117      23.551264     -752.73991    
    801000   2488.9378      40565.359     -779.20648      20.59011      -758.61637    
    802000   2558.1305     -63848.26      -769.77122      21.162516     -748.60871    
    803000   2560.3074     -13818.982     -769.42675      21.180525     -748.24622    
    804000   2857.7127     -42010.824     -777.53062      23.640855     -753.88977    
    805000   2909.798      -68940.609     -775.71785      24.071738     -751.64611    
    806000   2713.3353      20602.713     -772.75037      22.446472     -750.3039     
    807000   2714.9699     -22775.121     -770.9789       22.459994     -748.51891    
    808000   3094.1415      70143.6       -779.36876      25.596747     -753.77202    
    809000   3084.5012     -101870.77     -763.52421      25.516997     -738.00721    
    810000   2796.7536      30960.815     -770.06954      23.136561     -746.93297    
    811000   2927.7432     -28425.687     -780.61877      24.220192     -756.39858    
    812000   3128.1631     -28273.371     -775.12318      25.878197     -749.24498    
    813000   2805.7922     -119330.29     -773.32805      23.211335     -750.11671    
    814000   2830.6794     -9129.1776     -768.19363      23.417218     -744.77641    
    815000   2597.4175      22839.549     -771.2594       21.487524     -749.77188    
    816000   2983.6039      5989.8939     -779.49471      24.682308     -754.8124     
    817000   3016.9039      38094.287     -778.05611      24.957788     -753.09832    
    818000   2642.3628     -12322.991     -771.88489      21.85934      -750.02555    
    819000   3137.9922     -23710.161     -775.59648      25.959509     -749.63698    
    820000   3152.4544     -5923.8985     -775.76143      26.07915      -749.68228    
    821000   3019.467      -81382.247     -771.78176      24.978991     -746.80277    
    822000   3490.261      -12486.073     -767.33765      28.873705     -738.46395    
    823000   2950.2043     -58891.799     -771.77101      24.406005     -747.36501    
    824000   3009.704      -18049.525     -776.71166      24.898225     -751.81343    
    825000   2423.2431     -83604.621     -775.41664      20.04664      -755.37       
    826000   2833.2296     -10611.652     -775.41953      23.438315     -751.98121    
    827000   3245.9294      59047.501     -771.08733      26.852435     -744.23489    
    828000   2357.2204      20829.102     -775.44545      19.500458     -755.945      
    829000   2920.1636     -61609.673     -764.18167      24.15749      -740.02418    
    830000   3156.2568      34782.05      -772.06718      26.110606     -745.95658    
    831000   2917.1636     -71470.5       -777.48941      24.132671     -753.35674    
    832000   2937.2097     -22866.213     -776.57164      24.298506     -752.27314    
    833000   3080.0024     -8216.9462     -774.80317      25.479779     -749.3234     
    834000   2593.0414      80952.707     -775.35438      21.451322     -753.90306    
    835000   2592.2415      3218.1927     -767.40485      21.444704     -745.96015    
    836000   3098.5072      8514.494      -771.09688      25.632863     -745.46402    
    837000   3414.3546      47247.943     -773.45179      28.245758     -745.20604    
    838000   2762.9295     -1955.4737     -770.93414      22.856747     -748.0774     
    839000   2809.9869      43884.693     -777.03577      23.246036     -753.78973    
    840000   3218.3299     -96954.491     -769.84526      26.624115     -743.22114    
    841000   2517.65       -37077.94      -768.62383      20.827635     -747.79619    
    842000   2776.2847      61702.025     -777.15391      22.967229     -754.18668    
    843000   2659.7074     -62592.714     -769.53887      22.002826     -747.53605    
    844000   2374.657       32896.915     -776.13538      19.644704     -756.49068    
    845000   3403.5372      38264.503     -776.49604      28.156269     -748.33977    
    846000   3173.0539     -55444.503     -775.25275      26.249562     -749.00319    
    847000   2848.1304     -12472.076     -770.71476      23.561584     -747.15317    
    848000   3340.3324     -45424.12      -775.66045      27.633399     -748.02705    
    849000   3165.7847     -18884.709     -778.17462      26.189426     -751.98519    
    850000   2856.8107      21632.056     -770.99486      23.633393     -747.36147    
    851000   2808.8091      11407.03      -772.83579      23.236292     -749.5995     
    852000   3258.1517     -40656.878     -775.95659      26.953547     -749.00305    
    853000   3138.405      -36652.208     -776.29118      25.962924     -750.32826    
    854000   3032.4228     -67356.85      -773.77755      25.086171     -748.69138    
    855000   3130.7835     -9043.8301     -767.17508      25.899874     -741.27521    
    856000   2621.7678      77705.87      -771.38764      21.688966     -749.69867    
    857000   2673.2996      90663.015     -766.7401       22.11527      -744.62483    
    858000   3323.7276     -48185.195     -778.9612       27.496033     -751.46517    
    859000   2776.0635     -53774.964     -770.63663      22.965399     -747.67123    
    860000   2565.1562      55328.444     -775.85305      21.220637     -754.63241    
    861000   2765.894      -39186.41      -770.19277      22.881271     -747.3115     
    862000   3532.8942      13477.548     -774.08179      29.226395     -744.8554     
    863000   3073.1469      5689.5011     -774.36625      25.423067     -748.94318    
    864000   3189.3495      36899.725     -769.01056      26.38437      -742.62619    
    865000   3169.8573      67287.112     -767.21506      26.223118     -740.99194    
    866000   2557.5308     -92947.041     -767.29409      21.157555     -746.13653    
    867000   2877.8114     -33494.141     -767.78483      23.807124     -743.97771    
    868000   3148.28       -38874.043     -772.95998      26.044616     -746.91536    
    869000   3160.0517      15185.89      -777.13415      26.142        -750.99215    
    870000   2951.6977     -25976.696     -771.94969      24.41836      -747.53133    
    871000   2948.8386      4935.9858     -780.55073      24.394707     -756.15602    
    872000   3176.2133      3538.8549     -774.75295      26.275699     -748.47726    
    873000   2644.3076     -15681.148     -773.36876      21.875429     -751.49333    
    874000   2699.8722     -78559.31      -772.45064      22.335096     -750.11554    
    875000   2741.1558     -15185.403     -776.11965      22.676621     -753.44303    
    876000   2826.9036     -87789.147     -775.11491      23.385982     -751.72893    
    877000   2862.9811     -35591.739     -775.58416      23.684438     -751.89972    
    878000   3448.0098      2332.2977     -768.2453       28.524176     -739.72112    
    879000   2486.77       -14137.931     -780.14983      20.572176     -759.57766    
    880000   3120.7514     -35664.522     -772.53688      25.816882     -746.72       
    881000   3115.6229     -4525.2372     -772.08703      25.774455     -746.31257    
    882000   3287.672      -24502.098     -771.73521      27.197757     -744.53746    
    883000   2761.4401     -27128.796     -775.12629      22.844426     -752.28187    
    884000   2686.1098      11178.193     -770.06038      22.221244     -747.83914    
    885000   3413.1651     -31081.297     -767.90776      28.235918     -739.67184    
    886000   2985.1692     -5395.8539     -766.41401      24.695258     -741.71875    
    887000   2926.3517     -74559.779     -765.79665      24.208681     -741.58797    
    888000   3064.2336     -26943.737     -761.55991      25.34933      -736.21058    
    889000   3150.312       38701.955     -758.22287      26.061427     -732.16144    
    890000   2725.3329      7310.1492     -769.67111      22.545723     -747.12539    
    891000   2750.801       30896.18      -767.86441      22.756412     -745.108      
    892000   3300.8394     -20899.989     -760.9446       27.306687     -733.63791    
    893000   3443.5524      37433.187     -774.36765      28.487301     -745.88035    
    894000   2588.5547      73449.764     -770.78886      21.414205     -749.37465    
    895000   2727.2665     -32741.335     -773.78486      22.561719     -751.22314    
    896000   2704.9807      17742.372     -774.02258      22.377356     -751.64523    
    897000   2569.2557     -12126.884     -773.07862      21.254552     -751.82407    
    898000   3200.347      -37823.997     -765.65783      26.475348     -739.18249    
    899000   2753.0425      5429.2063     -768.78851      22.774955     -746.01355    
    900000   3285.8226     -29190.191     -767.095        27.182458     -739.91254    
    901000   3137.688      -68062.149     -766.19016      25.956993     -740.23317    
    902000   3154.4242     -7765.4794     -768.24219      26.095445     -742.14674    
    903000   3087.6447     -8321.2157     -771.21147      25.543001     -745.66847    
    904000   3186.3704     -26849.803     -769.23032      26.359724     -742.8706     
    905000   2910.0641     -31333.063     -776.37124      24.07394      -752.2973     
    906000   2779.1066      28591.54      -772.28986      22.990574     -749.29929    
    907000   2906.3474      6555.4592     -776.29519      24.043193     -752.252      
    908000   2910.029       33644.862     -777.6581       24.07365      -753.58445    
    909000   3321.5713     -6828.8285     -769.71435      27.478194     -742.23616    
    910000   3321.2528     -91582.773     -775.21146      27.47556      -747.7359     
    911000   2876.3588     -25049.41      -772.70507      23.795107     -748.90996    
    912000   3044.0472     -23757.288     -767.78773      25.182335     -742.60539    
    913000   3463.0059      10829.487     -769.69024      28.648234     -741.04201    
    914000   3425.1029      81998.676     -772.35219      28.334675     -744.01751    
    915000   3032.4182      11866.873     -774.45845      25.086132     -749.37232    
    916000   2644.1198     -34203.499     -775.46419      21.873876     -753.59031    
    917000   2824.1122      47268.254     -774.07928      23.36289      -750.71639    
    918000   3311.3115      44192.718     -770.05623      27.393319     -742.66291    
    919000   3085.3064     -48221.28      -769.61351      25.523658     -744.08986    
    920000   2441.0243     -9337.9806     -775.12663      20.193738     -754.9329     
    921000   3173.1769     -54979.234     -776.70821      26.25058      -750.45763    
    922000   2830.9292      25692.944     -769.92233      23.419284     -746.50305    
    923000   2745.1676     -52961.912     -767.00535      22.709809     -744.29554    
    924000   2945.4696      11561.721     -764.60525      24.366837     -740.23842    
    925000   2665.8153     -76571.283     -768.60257      22.053355     -746.54921    
    926000   3485.8349      39649         -773.55893      28.83709      -744.72184    
    927000   3044.8837      64009.786     -776.47229      25.189255     -751.28303    
    928000   3537.2178     -83060.068     -774.58779      29.262162     -745.32563    
    929000   2687.2523     -6262.3855     -770.81701      22.230696     -748.58632    
    930000   2488.2169      28015.762     -770.22893      20.584146     -749.64478    
    931000   3104.5607     -57565.204     -771.63026      25.682942     -745.94732    
    932000   3229.8937     -38130.237     -774.02161      26.719777     -747.30183    
    933000   3133.2813      77889.236     -771.79756      25.920537     -745.87703    
    934000   3456.4439      75766.753     -773.34771      28.593948     -744.75376    
    935000   2803.8952     -62947.409     -770.8363       23.195642     -747.64066    
    936000   3547.6747     -25816.461     -771.26604      29.348669     -741.91737    
    937000   3051.3491     -2569.0052     -775.78981      25.242741     -750.54707    
    938000   2839.0719     -78345.255     -778.91689      23.486646     -755.43024    
    939000   3103.5384     -19566.776     -774.69385      25.674485     -749.01937    
    940000   2588.6872     -20010.19      -771.90709      21.415301     -750.49179    
    941000   3733.3481      45177.026     -775.94925      30.88468      -745.06457    
    942000   2973.972       27032.302     -772.55796      24.602628     -747.95533    
    943000   3024.6102     -20669.516     -774.78848      25.021539     -749.76694    
    944000   3323.5569     -6991.4763     -771.97273      27.49462      -744.47811    
    945000   3116.4221     -55657.058     -775.69023      25.781067     -749.90916    
    946000   2369.361       9983.8118     -770.85147      19.600893     -751.25058    
    947000   2778.9346      21741.635     -765.97288      22.989151     -742.98373    
    948000   2903.7822      17436.324     -774.62979      24.021972     -750.60782    
    949000   3190.783       8221.6604     -772.52965      26.396229     -746.13342    
    950000   2811.2108     -25533.033     -774.87218      23.256161     -751.61602    
    951000   3559.152       18604.791     -771.27843      29.443616     -741.83481    
    952000   2965.9187     -87107.303     -768.5003       24.536005     -743.9643     
    953000   3066.2041     -48086.389     -771.23144      25.365631     -745.86581    
    954000   3358.495       6893.0507     -769.95333      27.783652     -742.16968    
    955000   3460.1025     -22699.297     -772.74284      28.624215     -744.11863    
    956000   2804.5337      8756.0145     -765.70782      23.200923     -742.5069     
    957000   3007.6262      8245.452      -775.42851      24.881037     -750.54748    
    958000   2508.3736     -17665.989     -770.86647      20.750895     -750.11557    
    959000   3024.6644     -3987.345      -774.226        25.021987     -749.20401    
    960000   3121.4163      19777.873     -770.03305      25.822383     -744.21067    
    961000   3139.8508      6016.9551     -773.04641      25.974884     -747.07153    
    962000   2853.9544     -17109.252     -772.74064      23.609764     -749.13088    
    963000   3170.1568      19684.058     -772.12735      26.225596     -745.90176    
    964000   3267.0325     -29514.432     -774.45311      27.027014     -747.42609    
    965000   3016.5514      13958.499     -780.29754      24.954872     -755.34267    
    966000   2623.9804     -8820.3731     -771.34587      21.70727      -749.6386     
    967000   3097.5384      16072.128     -763.32398      25.624849     -737.69914    
    968000   3008.2129     -12259.205     -772.60971      24.88589      -747.72382    
    969000   3165.7112      6494.0035     -768.17333      26.188819     -741.98451    
    970000   2992.4286     -9018.7381     -776.63808      24.755312     -751.88277    
    971000   2590.4134      5665.2261     -772.62644      21.429582     -751.19686    
    972000   3200.5838     -45579.477     -768.48852      26.477308     -742.01122    
    973000   3224.1312      21747.687     -773.69135      26.672107     -747.01925    
    974000   3130.1742      13807.705     -772.25569      25.894834     -746.36085    
    975000   3062.8448     -91998.404     -773.65649      25.337841     -748.31865    
    976000   2852.7359     -23684.449     -772.71507      23.599683     -749.11539    
    977000   3408.8198      53179.497     -774.30327      28.199971     -746.1033     
    978000   2972.5755     -10409.72      -767.89104      24.591074     -743.29996    
    979000   3265.1952     -15247.968     -772.98815      27.011815     -745.97633    
    980000   3214.3368     -91193.29      -772.65549      26.591081     -746.06441    
    981000   3005.2674      131218.5      -772.21017      24.861523     -747.34864    
    982000   3346.5982     -99688.348     -769.52292      27.685233     -741.83769    
    983000   3399.8506     -77965.293     -771.78674      28.125771     -743.66097    
    984000   3437.3651     -2003.4756     -769.8254       28.436116     -741.38928    
    985000   3257.4068     -3333.5086     -748.81774      26.947384     -721.87036    
    986000   3620.6085     -504.20637     -753.97109      29.952024     -724.01906    
    987000   2729.3118     -29561.747     -749.28436      22.578639     -726.70572    
    988000   3066.6617      33395.354     -747.99483      25.369416     -722.62541    
    989000   2290.5498      15893.95      -748.52424      18.948915     -729.57532    
    990000   3040.4759     -1774.5075     -748.43678      25.152791     -723.28399    
