BEGIN_CFG
 Size
    65
 Supercell
        10.053079      0.000000      0.000000
         0.000000     10.053079      0.000000
         0.000000      0.000000     10.053079
 AtomData:  id type       cartes_x      cartes_y      cartes_z
             1    0       0.258234      0.020192      1.711053
             2    0       2.379202      2.544389      1.616348
             3    1      -0.012784      2.697822      1.599247
             4    1       4.711942      2.518510      1.357630
             5    1       4.843394      2.316550      2.595377
             6    0       2.128974     -0.005846      4.635032
             7    1       2.228956      2.579711      4.609633
             8    0       4.493216      2.415820      4.599833
             9    1       4.777668     -0.212883      4.369753
            10    1       0.239440      2.545211      6.894203
            11    0       2.365242      2.615492      7.198750
            12    1      -0.302927      0.244597      4.878181
            13    0       2.229954      0.036911      9.571331
            14    1       2.409326      2.608475      9.531421
            15    1       4.658312      0.469957      9.668710
            16    1       2.126852      0.421533      7.586652
            17    0       2.537798      7.571988      1.912410
            18    1       0.299347      7.407991      2.135768
            19    1       2.762970     10.118663      1.899613
            20    1       2.012298      7.657160      4.117225
            21    1       4.618193      4.890504      4.478540
            22    1      -0.026433      5.195324      4.593573
            23    1       2.434781      4.782808      2.411510
            24    0       2.357668      5.255704      4.912125
            25    0       0.126369      5.295125      7.020475
            26    0       2.347443      7.851393      7.114196
            27    0       4.788301      5.424450      7.220642
            28    1       2.419602      5.521379      7.214665
            29    1       2.461217      7.840345      9.312025
            30    0       2.319216      5.244467      9.736294
            31    0       7.577028      2.769134      2.231398
            32    0       5.010032      0.075694      2.237896
            33    0       7.120510      0.002954     -0.053068
            34    0       7.334426      0.477632      4.710371
            35    0       9.913032      2.554375      4.169843
            36    1       7.408929      2.702636      4.482679
            37    1       8.351888     -0.243420      2.541104
            38    0       9.658148      0.348054      7.230779
            39    0       7.516300      2.441092      7.100517
            40    1       5.209753      2.782412      6.811164
            41    0       4.946048      0.065676      7.331055
            42    1       7.370527     -0.183286      7.275760
            43    0       4.907724      2.560830      9.381907
            44    0       7.314875      4.883909      9.498282
            45    0       9.831972      2.522854      9.433897
            46    1       9.482073     -0.022527      9.724669
            47    1       7.542841      2.396651      9.402983
            48    0       7.532487      7.415937      2.430935
            49    1       4.985290      7.657873      2.572981
            50    1       7.604727      5.149383      1.946865
            51    0       9.725066      5.346991      2.642264
            52    1       7.200090      7.494384      4.798240
            53    0       9.753035      7.919437      4.563325
            54    0       5.047893      5.040019      2.349021
            55    0       7.453365      5.086877      4.857745
            56    0       4.872943      7.380916      4.924408
            57    1       7.434678      5.329165      7.204436
            58    1       9.767197      7.798306      7.127286
            59    0       7.390692      7.614210      7.230786
            60    1       5.000740      7.642784      7.231102
            61    1       7.189184      7.348100      9.677511
            62    1       9.873250      4.864270      9.230833
            63    0       4.890889      7.383722      9.831231
            64    0       9.815803      7.544318      9.715657
            65    1       4.956181      4.975085      9.464891
 Feature   MV_grade	1.233015
 Feature   ind	8760
 Feature   selected_eqn_inds	0
END_CFG

BEGIN_CFG
 Size
    65
 Supercell
         9.996962      0.000000      0.000000
         0.000000      9.996962      0.000000
         0.000000      0.000000      9.996962
 AtomData:  id type       cartes_x      cartes_y      cartes_z
             1    0       0.124247      0.066885      1.828517
             2    0       2.161002      2.582881      1.849819
             3    1       2.506205     -0.091522      2.207138
             4    1       4.274662      2.838802      1.813452
             5    1       4.766792      0.390114      4.896525
             6    0       2.004755     -0.038453      4.525568
             7    1       2.348852      2.529397      4.347016
             8    0       4.818299      2.486645      4.715212
             9    0       0.138353      2.528710      4.568307
            10    1       4.720056      2.639332      7.148779
            11    0       2.434097      2.718733      6.996753
            12    0       2.093357     -0.087458      9.466708
            13    1       2.261864      2.784021      9.376683
            14    0      -0.076209      2.575516      9.332080
            15    0       2.816301      7.739378      1.945257
            16    1      -0.224559      7.369932      2.156164
            17    1       2.391237      5.422979      2.282657
            18    0       4.856709      7.798841     -0.044043
            19    0       0.015465      5.047671      2.223705
            20    0       4.768877      7.433829      4.711231
            21    0       2.411670      5.461215      4.581263
            22    0       4.808282      5.243086      6.926263
            23    0      -0.081832      5.355235      6.825049
            24    0       2.301208      7.597200      7.090499
            25    1       2.297393      9.976693      6.741140
            26    1       2.554106      7.762145      4.591651
            27    1       2.015853      7.633725      9.483333
            28    0       2.285026      5.398891      9.854587
            29    1      -0.232031      5.067657      9.600731
            30    1       4.942276      5.334532      9.944668
            31    1       1.867119      4.994497      7.254692
            32    1       4.717091      7.718517      7.465738
            33    0       7.567267      2.563308      2.353318
            34    1       9.872103      2.639832      2.163032
            35    0       7.316534      0.082316      0.104034
            36    1       5.274959      2.156551      2.211649
            37    0       7.394467      0.285623      4.547427
            38    1       9.831585      0.466187      4.583394
            39    1       7.469597      2.746419      4.618901
            40    1       7.429350      4.780433      6.762154
            41    0       7.486810      2.388193      6.868666
            42    1       9.756717      2.837805      6.903037
            43    1       7.115993      0.311495      7.460170
            44    0       4.982122      2.967178      9.418218
            45    1       7.344979      2.757934      9.954452
            46    0       5.026557      0.178540      7.461107
            47    0       9.645991      0.053745      7.482830
            48    1       7.511047      4.911753      2.460574
            49    0       5.129995      5.042457      2.084150
            50    0       4.794271      9.690208      2.229142
            51    1       6.749925      9.952083      2.339474
            52    0       7.391030      7.559871      2.868125
            53    1       4.947258      5.090732      4.559961
            54    0       9.578920      7.912766      4.960493
            55    0       7.343887      5.127249      4.729918
            56    1       9.870439      5.429791      4.233770
            57    1       5.324040      7.500236      2.140915
            58    1       7.040321      8.169520      4.886976
            59    0       7.298958      7.616040      7.109542
            60    1       9.864286      7.630896      7.242931
            61    1       7.590988      7.517481      9.816853
            62    0       9.857853      7.236288      9.773767
            63    0       7.334554      5.166021      9.409536
            64    1       9.638826      9.769341      9.767945
            65    1       5.043790     10.129984      9.604572
 Feature   MV_grade	2.003200
 Feature   ind	8824
 Feature   selected_eqn_inds	0
END_CFG

