BEGIN_CFG
 Size
    65
 Supercell
        10.056809      0.000000      0.000000
         0.000000     10.056809      0.000000
         0.000000      0.000000     10.056809
 AtomData:  id type       cartes_x      cartes_y      cartes_z
             1    0       2.021527      3.033392      2.355186
             2    1       2.239318      0.201916      2.166019
             3    0       2.236616      0.470932     -0.071495
             4    0       2.607134      0.096553      4.551314
             5    1       4.719649      0.456109      4.556720
             6    0       2.350586      2.785349      7.327189
             7    1       2.364390      0.578315      6.699566
             8    1       1.909204      3.663891      5.065577
             9    1       0.030757      0.813644      5.037660
            10    0      -0.013958      0.397868      7.466443
            11    1       2.438098      2.969146     10.143156
            12    1       4.746147      0.578492      9.508401
            13    1       0.055524      0.228421      9.841950
            14    0      -0.059350      2.834838      9.816798
            15    0       2.152006      8.094250      2.290084
            16    1       2.185860      5.045415      2.209481
            17    1       3.525542      6.260992      0.385602
            18    0       2.102674      5.627070     -0.117741
            19    1       2.482053      7.801630      4.697549
            20    0       2.456365      5.566985      4.500372
            21    1      -0.192085      8.013837      3.016403
            22    0       4.887936      5.079283      7.276906
            23    0       0.126079      5.596340      7.246315
            24    0       2.481321      8.031646      6.996406
            25    1       2.722039      5.555572      7.215030
            26    1       0.157666      7.877443      7.609733
            27    0       4.657975      8.247775      9.809769
            28    0       0.069318      7.996498      9.779283
            29    1       2.122213      8.054443      9.405067
            30    0       4.795766      0.576754      2.099651
            31    1       7.257440      0.445274      2.360756
            32    0       9.690462      0.381321      2.220886
            33    1       5.237341      2.858265      2.429484
            34    1       9.730091      2.497313      1.677267
            35    0       7.560658      2.641789      2.470045
            36    1       6.817330      2.597705      4.791048
            37    0       4.868066      2.581562      4.730786
            38    0       7.555920      0.439053      5.024688
            39    0       9.840588      2.812629      4.869615
            40    0       7.750835      2.772188      7.121469
            41    0       5.099389      0.067827      7.253786
            42    1       7.478661     -0.121440      7.312662
            43    0       5.073491      2.634188      9.783519
            44    1       7.649288      2.627224      9.662431
            45    0       7.428657      0.293842      9.773986
            46    1       5.306301      4.790410      9.301317
            47    1       5.205864      2.607540      6.885271
            48    1      10.016808      2.765086      7.421460
            49    1       4.916639      7.828121      1.859655
            50    0       4.931982      5.542263      1.907912
            51    1       7.319662      5.377652      2.341444
            52    0       9.443121      5.455325      2.511665
            53    0       5.457339      7.826225      4.665276
            54    1       7.821429      8.353961      4.962995
            55    0       7.372516      7.935012      2.444291
            56    1       9.608945      5.348388      4.827196
            57    1       7.451565      5.019459      7.029463
            58    0       7.638932      7.649265      7.176329
            59    0       7.034655      5.535809      4.965691
            60    0       9.909782      7.792301      5.102112
            61    1       4.925793      5.374069      4.824992
            62    1       5.111273      7.549820      7.231000
            63    1       7.368807      8.379475     10.024184
            64    0       7.707289      5.044771      9.307199
            65    1       9.863766      4.862634      9.501937
 Feature   MV_grade	1.317417
 Feature   ind	291291
 Feature   selected_eqn_inds	0
END_CFG

BEGIN_CFG
 Size
    65
 Supercell
        10.023046      0.000000      0.000000
         0.000000     10.023046      0.000000
         0.000000      0.000000     10.023046
 AtomData:  id type       cartes_x      cartes_y      cartes_z
             1    0       2.544506      0.864485     -0.010666
             2    0       2.438988      2.637718      2.146828
             3    1       4.620493      0.432593      4.223024
             4    0       2.276227      0.001625      4.640262
             5    1       0.370430      2.903059      2.817445
             6    0       2.493349      2.578667      7.147288
             7    1       2.411397      0.359450      6.667499
             8    0       4.784582      0.208545      7.289731
             9    1       2.473641      2.750692      5.074964
            10    0       4.791486      2.866168      9.861470
            11    0       0.055458      3.377161      9.522326
            12    1       2.402172      2.902293      9.051588
            13    0       2.283144      7.801322      2.289699
            14    0       0.110624      8.326503      0.096162
            15    0       2.040657      4.954825      0.006464
            16    0       4.812414      5.613580      2.197086
            17    1       2.208572      7.408507      0.230579
            18    1       4.594164      7.970044      2.287543
            19    1       2.248087      9.967418      2.540248
            20    1       2.414514      5.129429      2.110740
            21    1       4.784273      6.039612      4.817625
            22    0       2.512864      5.440317      4.789938
            23    1       2.254088      7.898397      4.657846
            24    0       0.023034      5.164455      7.110696
            25    0       4.382970      5.074110      7.119121
            26    0       4.733155      8.153011      4.999689
            27    1       2.276745      5.143217      7.185370
            28    0       2.306238      7.652693      7.231048
            29    1       1.292976      9.822414      8.484692
            30    1       0.223429      6.194334      9.177878
            31    1       4.636065      5.197790      9.609691
            32    1       4.355002      9.438476      9.494729
            33    0       7.962191      2.948686      1.715379
            34    0       4.928067      0.265195      1.936270
            35    1       7.532146      0.463495      2.253112
            36    0       9.760002      0.300556      2.360953
            37    1       5.584241      2.619424      2.279124
            38    1       7.253132      2.986396      5.032877
            39    0       7.515759      0.253827      4.379428
            40    0       9.696489      3.005799      4.781557
            41    1       4.853250      2.809053      7.324341
            42    0       7.256796      3.069756      7.398181
            43    1       9.600519      0.573487      4.695577
            44    1       9.990380      2.827060      6.801717
            45    1       7.091859      0.149070      6.875056
            46    0       5.088837      2.545143      4.891055
            47    0       7.542852      0.410286      9.365477
            48    0       9.738854      0.511035      7.420466
            49    1       7.054080      2.595077      9.724634
            50    1       9.487363      1.405351      9.822762
            51    0       7.228660      7.953244      2.252160
            52    0       8.217929      5.808806      0.168491
            53    1       6.759739      5.241668      2.016560
            54    0       6.753970      5.153378      4.681561
            55    0       9.564397      7.924666      4.842852
            56    1       9.586097      5.555344      4.707844
            57    0       9.570875      4.981995      2.413163
            58    1       9.592394      7.655318      2.748412
            59    1       9.829986      8.208633      6.850018
            60    1       7.148635      8.037255      5.386023
            61    0       7.397189      7.726065      7.403920
            62    0       4.975408      7.496254      9.639511
            63    1       4.912186      7.899067      7.231795
            64    1       7.790851      7.770713      9.724337
            65    1       7.851994      5.479872      7.881507
 Feature   MV_grade	1.203102
 Feature   ind	416660
 Feature   selected_eqn_inds	0
END_CFG

BEGIN_CFG
 Size
    65
 Supercell
         9.990453      0.000000      0.000000
         0.000000      9.990453      0.000000
         0.000000      0.000000      9.990453
 AtomData:  id type       cartes_x      cartes_y      cartes_z
             1    1       1.553698      0.641629      2.145055
             2    0       2.407968      2.842321      1.878553
             3    0       4.498582      0.758181      2.280384
             4    0       2.081069      0.501404      4.745073
             5    1       4.593745      0.411824      4.663658
             6    0       4.712792      2.930435      4.763460
             7    1       2.278838      2.774212      4.571911
             8    0       2.648473      2.992347      7.130141
             9    1       1.811820      0.172383      6.853664
            10    0       4.617833      0.603149      6.938635
            11    1       4.714754      3.044825      7.033103
            12    0      -0.122553      2.707215      4.868668
            13    1       2.240631      3.259509      9.486267
            14    0       2.172946      0.081104      9.351832
            15    1       4.534722      0.359242      9.555764
            16    1       4.458448      8.106292      2.287811
            17    0       2.121885      7.840828      2.266988
            18    0       4.782180      7.918610      4.526275
            19    0       2.152079      5.671932      4.803322
            20    1       2.255910      7.901555      4.671322
            21    0       4.846312      5.491415      2.380473
            22    1       2.245540      5.257494      2.795250
            23    1       4.477424      8.328221      7.119212
            24    0       2.425425      7.899233      6.986821
            25    1       1.717074      7.908822      9.605419
            26    0       2.454607      5.551179      9.527068
            27    0       4.826242      8.043242      9.728090
            28    1      -0.079800      5.656410      9.766148
            29    1       1.943346      5.492634      7.585905
            30    1       9.605017      3.280267      1.744072
            31    0       7.116473      2.977068      2.161409
            32    1       6.765077      0.883916      2.078574
            33    1       4.927815      3.270159      2.127327
            34    0       7.035230      0.489670      4.516470
            35    0       9.379876      0.477124      2.382257
            36    1       7.079148      2.707799      4.538998
            37    1       9.466690      0.460340      4.754385
            38    1       6.520370      0.206769      7.281951
            39    0       7.255879      2.896881      7.050705
            40    1       9.741200      2.630803      7.335844
            41    1       7.369252      3.040573      9.526921
            42    0       7.316446      0.467105      9.398164
            43    0       9.495620      3.155917      9.288677
            44    1       9.842176      0.942304      9.761308
            45    0       4.949217      3.133878      9.466669
            46    0       9.510030      0.397445      7.472877
            47    1       9.494738      8.094202      1.481365
            48    0       9.605259      5.732846      2.081716
            49    0       7.386023      8.223879      2.229165
            50    1       4.878806      5.231217     -0.121147
            51    1       7.347124      5.748807      2.142986
            52    1       6.956270      7.795699      0.107983
            53    1       9.703416      5.306982      4.864693
            54    1       5.162010      5.283559      4.859015
            55    1       9.647858      8.068473      3.002962
            56    0       6.795139      7.986968      7.348826
            57    1       9.640567      7.386764      7.183873
            58    0       9.644808      5.215343      6.966617
            59    0       9.732200      8.130450      5.146309
            60    0       4.901589      5.725423      7.056751
            61    0       7.303684      5.780210      5.026884
            62    1       6.812870      8.150379      5.058090
            63    0       9.614423      8.076797      9.333873
            64    0       7.294796      5.663632      9.801617
            65    1       6.926229      5.373272      7.536383
 Feature   MV_grade	1.285479
 Feature   ind	645947
 Feature   selected_eqn_inds	0
END_CFG

BEGIN_CFG
 Size
    65
 Supercell
        10.038807      0.000000      0.000000
         0.000000     10.038807      0.000000
         0.000000      0.000000     10.038807
 AtomData:  id type       cartes_x      cartes_y      cartes_z
             1    1       2.125918      4.700357      1.600329
             2    0       2.409427      2.620179      1.616774
             3    1       4.838223      3.034593      2.145730
             4    0       2.552449      0.337733     -0.092517
             5    1       0.453698      3.249427      2.622859
             6    0       4.708259      2.547245      4.731613
             7    1       2.422283      3.005205      4.514479
             8    1       2.441612      0.458994      2.587646
             9    1       4.610165      3.117366      7.445160
            10    0       4.770942      0.261693      7.212505
            11    1       4.739739      0.531482      4.874101
            12    0       2.385460     -0.034860      4.896998
            13    1       2.324023      0.035255      7.337822
            14    1       4.778162      1.039695      9.670961
            15    0       4.802189      3.121462      9.552040
            16    1       2.359158      2.936960      9.585556
            17    0       1.653803      2.910244      7.456495
            18    1      -0.013773      5.734389     -0.016271
            19    0       2.440038      8.248214      1.973552
            20    0       4.836586      5.687474      2.123304
            21    0       4.743167      7.916047      4.584266
            22    0       0.104589      7.632444      4.691029
            23    1       1.746945      5.225962      6.947450
            24    1       2.281707      7.452744      5.060893
            25    0       2.394778      4.952537      4.967569
            26    1       4.634920      5.231596      5.008437
            27    0       2.191751      5.414547      9.640684
            28    0       4.487580      5.461101      7.600155
            29    1       4.183565      7.995674      7.355180
            30    0      -0.082335      8.404518      9.325145
            31    1       2.341184      7.813098      9.480672
            32    0       2.086639      7.654873      7.434774
            33    0       9.619475      3.232466     -0.062909
            34    1       7.764577      0.568263      2.178023
            35    0       7.221319      3.075623      2.192894
            36    0       9.729338      0.202297      2.089156
            37    1       9.847286      0.759743     -0.122327
            38    1       9.790376      0.125999      4.583666
            39    0       4.942396      0.890413      2.429331
            40    0       7.194899      0.293733      4.640038
            41    1       9.233555      3.128255      2.834169
            42    0       9.416856      0.086002      6.887303
            43    0       7.102426      2.654502      7.264597
            44    0       9.712942      2.340386      5.142197
            45    1       9.669228      4.799592      4.900784
            46    1       7.409650      2.655639      5.040404
            47    0       7.086682      0.758022      9.760165
            48    1       7.604749      3.473862      9.691881
            49    1       9.260949      3.052241      7.686866
            50    1       7.271787      0.560673      7.549730
            51    0       7.260200      7.745733      2.053079
            52    1       9.300533      8.169754      1.613363
            53    0       7.499970      5.827217     -0.048609
            54    0       9.576929      5.152055      2.635058
            55    0       6.855888      5.526220      4.757663
            56    1       7.484246      5.391890      2.729001
            57    1       5.190356      8.616189      2.526245
            58    0       9.113300      5.360527      6.882261
            59    1       6.923211      8.050743      4.979778
            60    0       6.486678      7.829994      7.496844
            61    0       4.904032      8.265377      9.881103
            62    1       7.034720      8.519295      9.606629
            63    1       4.922523      5.940556      9.755264
            64    1       8.949212      7.878899      7.432631
            65    1       6.974308      5.722928      7.446260
 Feature   MV_grade	1.499936
 Feature   ind	797582
 Feature   selected_eqn_inds	0
END_CFG

BEGIN_CFG
 Size
    65
 Supercell
        10.227613      0.000000      0.000000
         0.000000     10.227613      0.000000
         0.000000      0.000000     10.227613
 AtomData:  id type       cartes_x      cartes_y      cartes_z
             1    0       4.720687      0.576600      1.839198
             2    1       3.675717      2.379542      1.144671
             3    1       2.167969      0.346786      2.076755
             4    0      -0.020079      0.358421      2.020254
             5    0       2.299582      3.221865      2.269297
             6    1       2.198610      2.911828      4.867564
             7    0       2.105325      0.147475      4.563375
             8    0       4.788360      2.604534      4.853867
             9    1       0.318017      0.760915      4.421004
            10    0      -0.188212      0.089507      7.163746
            11    0       2.134534      2.809804      7.252842
            12    1       0.138898      3.343601      6.814953
            13    0       2.289487      0.415366      9.747750
            14    0       4.177974      3.318686      9.592059
            15    1       1.419532      4.102479      9.085200
            16    1       2.040153      0.341516      7.608824
            17    1       2.137701      5.697759      2.299321
            18    0       2.092139      7.935974      1.849307
            19    1       2.041846      8.340211     -0.206436
            20    0       2.664038      5.358970      4.763234
            21    1       4.756868      8.795941      2.331617
            22    1       4.274807      6.426802      3.427867
            23    1      -0.202639      5.345654      4.614189
            24    0       1.915260      7.953022      7.387939
            25    0       4.691074      8.198394      4.909672
            26    1       2.106622      5.975261      7.168159
            27    0       4.560310      9.751935      7.238911
            28    0       4.090387      5.076313      7.352870
            29    1       4.617543      6.835063      6.807978
            30    0       4.056005      8.010064      9.591413
            31    1       4.595338      5.627968      9.678048
            32    0       1.817598      5.951952      9.705009
            33    1       8.965812      2.211093      1.181571
            34    0       5.046399      4.850030      2.071997
            35    1       5.559869      2.293189      2.727979
            36    0       9.889770      3.109742      4.833536
            37    0       7.598393      2.436131      2.811510
            38    1       5.075488      4.591475      4.844009
            39    0       7.044969      3.024808      7.096935
            40    1       7.301145      2.343336      4.880209
            41    1       5.187557      1.130953      6.041803
            42    0       7.119851     -0.074980      5.311501
            43    0       9.861835      2.979584      9.868552
            44    0       7.085192      0.880930      9.359798
            45    1       7.370582      2.953091      9.257849
            46    1       4.969378      0.708056      9.548437
            47    1       8.398025      1.257642      7.560833
            48    1       6.569057      9.933600      1.902791
            49    0       9.679886      5.332722      2.111268
            50    1       6.883595      7.331996      0.237131
            51    0       9.488442      7.881759     -0.059662
            52    1       9.258729      7.920675      2.110294
            53    0       9.513101      7.633255      4.757855
            54    0       6.708398      7.884511      2.368522
            55    1       6.704000      5.772192      2.325508
            56    0       9.644195      5.393181      6.878600
            57    0       6.677816      5.546594      4.983387
            58    1       7.312561      5.028010      7.332278
            59    1       9.519516      8.106736      7.419690
            60    1       7.186655      7.691905      5.257183
            61    0       7.285851      5.473527      9.806548
            62    0       7.388585      7.311862      7.627211
            63    1       6.544373      9.067141      8.289610
            64    1       9.540013      5.504031      9.909133
            65    1       9.773100      9.951878      9.740916
 Feature   MV_grade	1.222239
 Feature   ind	960639
 Feature   selected_eqn_inds	0
END_CFG

BEGIN_CFG
 Size
    65
 Supercell
        10.262920      0.000000      0.000000
         0.000000     10.262920      0.000000
         0.000000      0.000000     10.262920
 AtomData:  id type       cartes_x      cartes_y      cartes_z
             1    0       4.807753      0.447295      1.828146
             2    1       3.431632      1.573094      0.908163
             3    0       2.507299      3.274413      2.111928
             4    0      -0.016691      0.710555      1.773935
             5    0       0.078799      3.003599      4.771810
             6    0       2.081770      0.458216      4.567279
             7    0       4.844414      2.434348      4.676858
             8    1       2.392608      2.638985      4.352535
             9    1       2.256884     -0.026592      2.429306
            10    0       2.083291      2.618011      7.153817
            11    1       2.187679      0.744038      6.862255
            12    0       2.326367      0.159477      9.966453
            13    0       4.108673      3.772035      9.452935
            14    1       1.726372      2.543115      9.469992
            15    1       4.874094     -0.181136      9.699458
            16    1      -0.030532      0.544289      9.347045
            17    1       1.263210      5.331108      1.619144
            18    0       2.257098      8.019390      2.292128
            19    1       4.349233      5.528997      0.130183
            20    1       3.651619      8.829617      1.049177
            21    0       4.605855      8.375153      4.699417
            22    1       0.000492      5.525301      4.683127
            23    1       2.928755      6.767129      3.614077
            24    0       1.759226      8.281174      7.318416
            25    1       4.449839      7.282316      7.259350
            26    1       1.298457      5.417334      7.329795
            27    0       4.467840      9.653776      7.436198
            28    0       4.315331      5.165282      7.372996
            29    0       2.352836      5.517329      4.936743
            30    0       4.413659      7.607614      9.205810
            31    0       1.850402      5.815791      9.907453
            32    1       1.200509      7.645068      9.550511
            33    1       8.692608      2.441314      0.972966
            34    0       4.981163      4.865244      2.076789
            35    1       7.003202     -0.237984      2.234606
            36    1       5.059876      2.534797      2.385343
            37    0       7.523884      2.428768      2.810499
            38    1       9.433548      1.428253      3.667173
            39    1       7.541311      3.426173      4.777410
            40    0       6.939501      3.095665      7.093887
            41    1       9.965552      3.295607      7.562762
            42    1       5.420645      1.677907      6.602237
            43    1       5.075674      4.494390      5.495814
            44    0       9.817795      0.123661      7.351705
            45    0      10.021705      3.059181      9.851132
            46    0       6.918276      0.669109      9.374117
            47    1       6.943798      2.786224      9.217394
            48    1       8.202869      1.267929      7.637214
            49    1       9.648627      5.272187     -0.298349
            50    0       9.752245      5.527169      2.242253
            51    1       7.420086      8.355919     -0.265087
            52    0       9.492102      7.827617     -0.096597
            53    0       6.869215      7.734398      2.242376
            54    0       9.593869      7.501094      4.864305
            55    1       7.256805      7.674088      4.356628
            56    1       7.605235      4.774022      2.694607
            57    0       6.864062      5.457047      4.746359
            58    1       9.779026      7.853450      2.759280
            59    0       9.491021      5.581008      7.244337
            60    0       6.906870      9.966618      5.312730
            61    1       6.463642      5.297592      7.352921
            62    1       7.102602      9.290456      7.204580
            63    1       9.669687      7.908946      7.362532
            64    0       6.891204      5.080445      9.849471
            65    0       7.623778      7.472326      7.727506
 Feature   MV_grade	1.232290
 Feature   ind	960707
 Feature   selected_eqn_inds	0
END_CFG

BEGIN_CFG
 Size
    65
 Supercell
        10.430034      0.000000      0.000000
         0.000000     10.430034      0.000000
         0.000000      0.000000     10.430034
 AtomData:  id type       cartes_x      cartes_y      cartes_z
             1    0       2.354566      2.637180      1.749826
             2    1       1.929427      0.324597      1.557083
             3    1       4.338352      1.886808      0.422802
             4    0       4.782007      0.115340      1.615868
             5    1       4.373580      3.138422      2.959501
             6    0      -0.144029      2.766319      4.798577
             7    1       2.054433      3.140866      4.647389
             8    1      -0.193535      1.512595      2.576342
             9    0       4.319024      3.261105      5.191073
            10    1       4.489565      1.063404      5.329089
            11    0       2.407147      0.760468      5.332882
            12    1       4.097855      3.764422      7.336642
            13    0       4.746722      0.321191      7.435911
            14    0       1.966815      3.167328      7.927149
            15    1       1.935870      1.123739      7.587058
            16    1       0.955142      3.428385      9.798388
            17    1       1.449881      8.101737      0.191231
            18    1       4.456646      9.204894     -0.405899
            19    0       1.150705      5.059331      4.305016
            20    0       1.547500      8.108353      2.287047
            21    0       4.149255      6.145035      2.326627
            22    1       0.071433      9.374739      3.052396
            23    1       3.886096      5.850659      4.441030
            24    1       2.079871      7.785929      4.450533
            25    1       1.848669      5.686493      2.358553
            26    0       1.768917      7.884351      6.534915
            27    0       4.669407      5.709174      7.013106
            28    0       2.575609      9.527967      9.725751
            29    0       2.348989      6.144567      9.714627
            30    1       3.416359      7.543274      8.156524
            31    1       1.805377      5.453344      7.693765
            32    1       0.231166     10.009017      9.391578
            33    1       0.008780      5.540059      9.353884
            34    1      -0.285955      8.168024      7.481870
            35    0      10.051526      1.803612     -0.082053
            36    1       7.938509      3.628777      0.088582
            37    0       9.761958      4.487549      0.781095
            38    0       6.371029      3.271838      2.249221
            39    0       6.792823     -0.049848      4.796346
            40    0       9.021175     -0.096117      2.404493
            41    1       7.406376      0.919012      3.052959
            42    1       6.675083      3.709563      4.713475
            43    0       7.599871      2.422274      6.543730
            44    1       8.628391     -0.205173      5.615747
            45    1       9.472795      3.190927      6.887585
            46    0      10.113132      0.354485      7.460049
            47    1       8.963305      1.377701      8.588961
            48    0       7.443563     -0.274589      9.510599
            49    1       6.040029      1.793290      8.267181
            50    0       5.377395      3.315679      9.869736
            51    0       6.790565      5.607982      0.053980