BEGIN_CFG
 Size
    65
 Supercell
         9.974670      0.000000      0.000000
         0.000000      9.974670      0.000000
         0.000000      0.000000      9.974670
 AtomData:  id type       cartes_x      cartes_y      cartes_z
             1    0       2.298706      0.056900      0.020425
             2    0       1.992157      2.643837      2.063978
             3    1       2.069022      0.217380      2.276665
             4    0       2.285186      0.311109      4.487811
             5    1       2.282678      2.859120      4.561328
             6    0       4.897104      2.440662      4.480640
             7    0       0.180014      2.655816      4.707657
             8    0       4.863909      0.151569      7.188448
             9    0       2.828337      2.213857      7.248938
            10    1       0.588462      2.911766      6.968753
            11    1       2.730555      4.954429      7.302764
            12    1       4.988043      2.757312      6.986057
            13    0      -0.127835      2.600300      9.311076
            14    1       2.349619      2.510664      9.733890
            15    1       2.024181     -0.016198      7.688545
            16    1       5.269703      7.648031      2.063730
            17    1       0.809289      8.837102      1.038538
            18    1       2.252390      5.354154      2.219186
            19    0       2.429532      5.394768      4.542809
            20    0       4.596426      7.718630      4.458503
            21    1       4.624700      5.495089      4.612806
            22    1       0.200116      5.630470      4.717393
            23    0       2.026754      7.836975      2.583506
            24    0       1.995431      7.705332      7.124863
            25    0      -0.023906      5.197059      6.789466
            26    1       4.771242      7.765623      7.271185
            27    1       2.031759      8.038091      5.087412
            28    0      -0.086919      7.427933      9.640213
            29    1       2.481151      7.421248      9.773788
            30    0       2.492280      5.187691      9.708000
            31    1       0.012357      5.145437      8.901658
            32    0       9.566446      4.913413      1.830006
            33    1       4.795996      2.538691      2.334586
            34    0       7.200003      2.694713      1.747678
            35    0       9.551427      0.487884      2.127227
            36    1       7.384446      0.129597      2.203747
            37    1       9.982125      2.806468      1.504929
            38    1       5.088239      0.087146     -0.086654
            39    0       7.326557      0.292837      4.571418
            40    1       5.069454      0.006060      4.845630
            41    1       9.865336      0.398826      4.291106
            42    1       7.561457      2.870328      4.271031
            43    0       5.054789      0.009969      2.436285
            44    1       7.087663      0.269276      7.221247
            45    0       7.277893      2.731911      7.080044
            46    0       7.360996      0.202449      9.641834
            47    1       7.159235      3.062058      9.589723
            48    1       9.351410      0.693603      9.662463
            49    0       4.772303      2.463771      9.819324
            50    0       9.457844      0.041520      7.361445
            51    0       7.519368      7.407950      2.172136
            52    1       7.247698      4.954572      2.193446
            53    0       4.969805      5.063064      1.942867
            54    1       7.145803      7.775240      4.592633
            55    0       7.427217      4.922250      4.616580
            56    0       9.613798      7.901498      4.717021
            57    1       9.544492      7.308166      2.721037
            58    1       9.773842      8.081458      7.125254
            59    0       7.180280      7.651769      6.684157
            60    1       7.448604      5.298483      7.129231
            61    0       5.009941      5.034660      7.474651
            62    0       5.042026      7.728631      9.718046
            63    0       7.410478      5.357706      9.343597
            64    1       7.772447      7.697052      9.286641
            65    1       5.000360      5.582258      9.669144
 Feature   MV_grade	1.200164
 Feature   ind	56518
 Feature   selected_eqn_inds	0
END_CFG

BEGIN_CFG
 Size
    65
 Supercell
         9.950768      0.000000      0.000000
         0.000000      9.950768      0.000000
         0.000000      0.000000      9.950768
 AtomData:  id type       cartes_x      cartes_y      cartes_z
             1    0       2.248759      2.791021      1.928441
             2    1      -0.103394      2.781727      1.759133
             3    1       2.281714      0.370338      2.153595
             4    1       4.627951      2.721533      2.282605
             5    0       4.719135      0.397914      2.190138
             6    1       2.490836      2.956600      4.849717
             7    0       2.230641      0.020726      4.647898
             8    1       0.026216      2.633892      6.983932
             9    0       2.540925      2.646773      7.044768
            10    1       2.202458      2.948690      9.378472
            11    0       4.553784      2.496372      9.701357
            12    0       2.250732      0.471679      9.406082
            13    1       4.796509      0.143516      9.523430
            14    1       2.467024      5.242893      2.153914
            15    0       2.501691      7.605930      2.384097
            16    1       0.215844      7.810569      2.090320
            17    0       0.028929      5.323407      1.959775
            18    1       4.344337      4.915711      4.742726
            19    0       2.266092      5.090646      4.674424
            20    0       4.714967      7.654024      4.739525
            21    1       2.024867      7.637420      4.654992
            22    1       4.671450      7.902423      2.422841
            23    1       2.167582      4.918186      7.085336
            24    0       0.026189      5.209857      7.169811
            25    0       2.478163      7.664097      7.135764
            26    1       1.901642      9.773070      7.236756
            27    1       4.525593      7.400574      7.024732
            28    0      -0.024088      7.686727      9.497907
            29    0       2.558050      5.172408      9.575119
            30    1       0.094298      5.649390      9.461900
            31    1       4.686905      4.944643      9.686422
            32    1       2.743181      7.896081      9.396096
            33    0       9.768206      0.077029      2.002285
            34    1       7.042258      0.355810      2.061452
            35    0       7.549196      2.758026      2.231940
            36    0       9.785912      2.593253      4.582115
            37    0       7.165057     -0.057188      4.541738
            38    1       7.521513      2.392539      4.894138
            39    0       4.900733      2.581850      4.715284
            40    1       4.854023      0.360857      4.597453
            41    1       9.187023      0.154943      4.149703
            42    1       7.030534      0.383220      6.698060
            43    0       7.436754      2.908415      7.150762
            44    0       4.956500      0.153880      7.045517
            45    0       9.587466      0.050802      7.004028
            46    0       7.079655      0.277142      9.835982
            47    1       7.188615      2.503457      9.749644
            48    0       9.655678      2.953390      9.484995
            49    1       9.618379      1.082278      9.718197
            50    1       5.349945      2.664331      7.501321
            51    0       7.258731      7.717902      2.035082
            52    0       4.918746      5.272872      2.212373
            53    1       7.470088      5.412819      2.089815
            54    0       7.474280      5.343459      4.302662
            55    0       9.599285      7.373596      4.523754
            56    1       7.090262      7.446527      4.483688
            57    1       7.325041      5.306749      6.419922
            58    1       9.762160      7.707074      7.250848
            59    0       5.266442      5.078159      7.344312
            60    1       9.598693      5.355453      5.047065
            61    1       9.631809      9.662804      9.210922
            62    1       7.774163      7.563012      9.784841
            63    0       4.940312      7.489037      9.650001
            64    0       7.301176      5.365280      9.606913
            65    0       7.433651      7.531993      7.395031
 Feature   MV_grade	1.233887
 Feature   ind	27341
 Feature   selected_eqn_inds	0
END_CFG

BEGIN_CFG
 Size
    65
 Supercell
        10.068593      0.000000      0.000000
         0.000000     10.068593      0.000000
         0.000000      0.000000     10.068593
 AtomData:  id type       cartes_x      cartes_y      cartes_z
             1    0       2.639468      4.618214     -0.133062
             2    0       2.143173      2.504829      2.238412
             3    1       4.324399      2.318376      2.379000
             4    1       1.869245      0.038375      2.136717
             5    0       4.791368     -0.075190      2.442935
             6    0       4.765680      2.909514      4.814619
             7    0       2.334547      0.091734      4.641446
             8    1       2.132969      2.672935      4.680140
             9    1       4.783556      0.643617      4.776216
            10    1      -0.190089      2.980927      2.565763
            11    0       2.403445      2.333529      7.037083
            12    0      -0.052716      0.293839      6.881579
            13    1       1.940803     -0.012895      7.189607
            14    0       4.786893     -0.083707      7.119607
            15    1       2.569464      4.791082      7.173870
            16    0       4.604895      4.669255      7.326289
            17    0       0.147037      2.746761      9.508142
            18    1       2.651123      2.566076      9.756929
            19    0       2.159802      0.203749      9.609599
            20    0       4.817129      2.178421      9.833123
            21    1      -0.150715      7.677485      1.921514
            22    1       4.395473      9.762835      0.216188
            23    1       2.498799      5.432597      2.330245
            24    0       0.063060      5.264766      2.082904
            25    1       4.785256      5.454134      0.202128
            26    0       2.283702      5.165575      4.585535
            27    0       4.639766      7.361457      4.703927
            28    1       2.413397      7.988022      4.601291
            29    0       0.103924      7.732592      4.699868
            30    1      -0.085705      5.225388      4.532374
            31    0       2.394066      7.818597      2.472930
            32    0       4.617401      5.389896      2.365678
            33    0       2.281154      7.434829      6.916167
            34    0       0.268149      5.298354      7.197191
            35    1       2.517083      7.298802      9.897671
            36    0       0.423074      7.560064      9.510867
            37    0       4.698148      7.464806      9.785704
            38    1       0.484762      5.044307      9.583777
            39    0       6.936350      2.560819      2.051631
            40    0       9.857444      0.451532      2.065493
            41    1       7.010762     -0.021467      1.816696
            42    0       7.333318      0.625167      4.703714
            43    1       7.202956      2.718203      4.434022
            44    1       7.737071      0.914069      2.504345
            45    0       9.700900      3.124156      4.782282
            46    1       9.836007      0.080562      4.751491
            47    1       7.451579      0.167049      6.945016
            48    1       9.723778      2.523750      7.164764
            49    1       6.973130      2.706244      9.603510
            50    0       7.409189      2.587056      7.447005
            51    0       7.346915     -0.047480      9.326568
            52    1       5.394714      2.112934      7.644809
            53    1       7.533495      5.676030      2.141611
            54    1       5.172200      7.630941      2.030717
            55    0       7.242637      5.162363      4.311303
            56    1       7.070073      7.684514      4.281972
            57    1       5.238882      5.035031      4.544602
            58    0       7.663576      7.742392      2.362865
            59    0       7.396482      7.374178      6.630281
            60    1       9.859819      7.752169      6.932534
            61    1       5.309041      7.549011      6.978945
            62    1       8.010167      5.232149      7.169587
            63    0       7.462976      5.189490      9.575043
            64    1       7.021518      7.888288      9.661364
            65    1       9.248875      9.853967      9.600186
 Feature   MV_grade	1.255413
 Feature   ind	6052
 Feature   selected_eqn_inds	0
END_CFG

BEGIN_CFG
 Size
    65
 Supercell
         9.940698      0.000000      0.000000
         0.000000      9.940698      0.000000
         0.000000      0.000000      9.940698
 AtomData:  id type       cartes_x      cartes_y      cartes_z
             1    0       2.183916      2.744911      1.897085
             2    1      -0.247525      3.019386      1.828598
             3    1       2.048987      0.370539      2.271120
             4    1       4.862692      2.870913      2.250062
             5    0       4.763604      0.437937      2.121920
             6    1       2.780123      3.090910      4.870725
             7    0       2.336210      0.038549      4.628535
             8    1       0.031774      2.590200      6.945681
             9    0       2.534633      2.683917      7.083867
            10    1       2.373011      2.943029      9.541549
            11    0       4.526488      2.535963      9.713448
            12    0       2.209818      0.435268      9.289138
            13    1       5.008714      0.415582      9.117918
            14    1       2.256494      5.076997      2.399735
            15    0       2.532028      7.574113      2.389516
            16    1       0.164779      7.792299      1.996118
            17    0       0.073770      5.326027      1.922302
            18    1       4.649669      4.897214      4.935922
            19    0       2.335676      5.059701      4.687082
            20    0       4.662356      7.591863      4.762238
            21    1       1.858286      7.536858      4.566063
            22    1       4.880614      7.565626      2.186830
            23    1       2.359924      4.929426      7.333085
            24    0       0.044504      5.205971      7.201267
            25    0       2.454132      7.563192      7.049299
            26    1       1.907267      9.819379      7.168142
            27    1       4.768506      7.410621      6.908413
            28    0      -0.041741      7.722922      9.465177
            29    0       2.511556      5.187994      9.593333
            30    1       0.031977      5.484388      9.780952
            31    1       4.700777      4.861397      9.644356
            32    1       2.713246      7.678619      9.220170
            33    0       9.810878      0.004417      1.999093
            34    1       7.365729      0.127822      2.203164
            35    0       7.540150      2.711853      2.310850
            36    0       9.778809      2.714824      4.591160
            37    0       7.212368     -0.066122      4.595604
            38    1       7.609866      2.415599      5.120585
            39    0       4.924800      2.674584      4.736530
            40    1       4.704288      0.067540      4.544588
            41    1       9.395717      0.196598      4.002424
            42    1       7.191774      0.308880      6.905727
            43    0       7.385879      2.890114      7.135796
            44    0       4.874460      0.124616      7.038590
            45    0       9.616058      0.173844      6.973671
            46    0       7.097866      0.336801      9.873759
            47    1       7.493198      2.507562      9.767079
            48    0       9.619739      2.968833      9.437264
            49    1       9.688956      0.852654      9.689273
            50    1       5.013747      2.515384      7.587544
            51    0       7.348912      7.615900      2.070307
            52    0       4.928659      5.270608      2.205406
            53    1       7.638245      5.316004      2.045799
            54    0       7.445813      5.315916      4.306168
            55    0       9.549199      7.411521      4.587834
            56    1       6.962265      7.713381      4.607212
            57    1       7.258563      5.274498      6.615938
            58    1       9.844926      7.661856      7.362705
            59    0       5.153400      5.053309      7.389319
            60    1       9.709903      5.248206      4.745394
            61    1      10.007924      9.816938      9.007442
            62    1       7.593053      7.915484      9.524900
            63    0       4.886715      7.523502      9.637049
            64    0       7.313256      5.388484      9.596802
            65    0       7.429538      7.552090      7.387168
 Feature   MV_grade	1.207220
 Feature   ind	27357
 Feature   selected_eqn_inds	0
END_CFG

BEGIN_CFG
 Size
    65
 Supercell
         9.989107      0.000000      0.000000
         0.000000      9.989107      0.000000
         0.000000      0.000000      9.989107
 AtomData:  id type       cartes_x      cartes_y      cartes_z
             1    0       2.129184      2.729270      2.294581
             2    1       2.426477      0.235702      2.490576
             3    1       2.158198      2.701602     -0.033066
             4    1       2.303907      2.985006      5.064382
             5    0       2.503594      0.324954      4.367297
             6    1       0.096935      0.425758      4.685889
             7    1       2.437244      0.224160      6.804441
             8    0       0.130006      0.122617      6.950269
             9    0       4.644959      0.268938      7.308031
            10    0       2.408606      2.560970      7.574097
            11    0       4.330940      2.599937      9.497483
            12    1      -0.201007     -0.161191      9.473322
            13    1       4.786694      7.173041      2.118371
            14    0       2.120871      7.572971      2.332426
            15    0       2.522030      5.030031      4.901694
            16    1       2.792643      7.761472      4.306516
            17    1       2.195712      5.136606      2.623029
            18    1       2.520161      5.392599      7.468578
            19    0       0.201315      4.903083      7.060731
            20    0       2.586178      7.780948      7.250428
            21    0       4.602819      5.395544      7.305792
            22    1       4.685750      7.796091      6.409793
            23    1      -0.122889      7.753614      6.713714
            24    0       2.234896      4.975631      9.643575
            25    1       4.551219      4.791532      9.385969
            26    0       4.671609      8.108156      9.476734
            27    0       2.486656      9.784816      9.588276
            28    0       0.115059      7.359619      9.459962
            29    1       2.401997      7.550470      9.684821
            30    0       7.422481      2.606317      1.964681
            31    1       7.358377     -0.086642      2.330765
            32    0       4.922385     -0.068684      2.092123
            33    0       9.645189      2.322949     -0.057139
            34    0       9.700111      0.032881      2.135517
            35    1       5.264900      2.776518      2.215489
            36    1       7.832109      2.557505      4.947340
            37    0       7.241905      0.319288      4.969950
            38    0       4.799553      2.661761      4.691473
            39    0       9.675320      2.439097      4.717051
            40    1       9.916420      2.584484      2.147732
            41    1       5.222018      0.546709      4.141074
            42    1       4.832845      2.702142      7.188183
            43    1       7.508430      0.599661      7.193917
            44    1       7.911515      4.572893      6.624009
            45    1       9.810189      2.507755      7.096423
            46    1       7.510207      2.622438      9.583809
            47    0       7.572415      2.836468      7.399912
            48    1       9.613278      4.547442      9.566696
            49    1       4.905697      0.574376      9.396532
            50    0       7.492530      7.792738      1.887392
            51    1       7.416173      5.157617      2.097939
            52    1       9.859806      7.959936      1.652838
            53    0       4.871085      5.284573      1.924428
            54    0       9.765800      5.470162      2.093605
            55    0       7.293857      5.054458      4.374077
            56    0       4.889834      7.867518      4.380999
            57    0       9.665968      7.766250      4.607632
            58    1       4.946717      5.103601      4.427075
            59    1       7.193509      7.756212      5.039898
            60    1       9.644622      4.976519      4.603421
            61    0       6.897775      8.050040      6.971007
            62    1       6.879391      7.529414      9.726133
            63    1       6.704494      6.217249      7.288482
            64    0       7.511216      5.030558      9.363275
            65    0       7.519163      9.755278      9.457394
 Feature   MV_grade	1.319170
 Feature   ind	40401
 Feature   selected_eqn_inds	0
END_CFG

BEGIN_CFG
 Size
    65
 Supercell
         9.984717      0.000000      0.000000
         0.000000      9.984717      0.000000
         0.000000      0.000000      9.984717
 AtomData:  id type       cartes_x      cartes_y      cartes_z
             1    1       2.530284      0.055824      2.055662
             2    1      -0.157204      2.711389      1.912464
             3    0       2.170715      2.770323      1.867058
             4    0       4.838625      0.241968      2.014957
             5    0       2.323033      0.006158     -0.134065
             6    1       2.896923      2.232461      4.108899
             7    0       2.347571     -0.092526      4.340307
             8    0       2.279384      2.759045      7.230316
             9    1       5.004240      2.970438      7.279936
            10    0       0.510454      2.825119      4.988923
            11    1      -0.017009      0.091642      4.458414
            12    1       4.966889      0.208657      9.283668
            13    0      -0.050315      0.182664      7.374351
            14    0       4.761137      2.559917      9.699669
            15    1       2.175952      2.638403      9.504608
            16    1       4.847397      4.676811      9.467534
            17    0       4.754683      5.079853      1.886915
            18    0       2.499798      7.556747      2.055488
            19    1       2.457214      5.027982      1.876430
            20    1       4.617005      7.644450      1.511808
            21    1       2.732745      7.492008      4.457413
            22    0       2.218106      4.953798      4.501291
            23    0       0.012224      7.633963      4.601031
            24    1       4.612472      5.672954      4.539877
            25    1       2.486594      4.784765      7.742035
            26    0       2.466841      7.714360      6.824165
            27    1      -0.190155      7.855908      7.465323
            28    0       4.804839      5.130245      6.854872
            29    1       2.516524     10.091488      6.987610
            30    1      -0.116739      4.984834      4.944721
            31    0       2.195039      5.041473      9.780380
            32    1       2.441827      7.473981      9.581736
            33    0       0.007717      7.310402      9.784270
            34    0       9.830954      0.104304      2.006790
            35    1       5.126920      2.714381      2.065542
            36    1       8.614607      2.163630      3.998664
            37    0       4.875955      2.470733      4.714893
            38    0       7.562456      0.393823      4.692753
            39    1       5.004529      0.110966      4.383949
            40    0       7.415555      2.966488      2.393420
            41    0       7.337707      2.406176      7.121468
            42    1      10.131742      2.693096      7.526620
            43    0       4.979266      0.123384      6.916730
            44    1       6.836851      2.979000      4.958667
            45    1       6.989547      2.707650      9.703986
            46    0       9.154967      2.778513      9.816141
            47    0       7.335758      0.177998      9.785885
            48    1       7.656317     -0.330419      7.195814
            49    1       7.477910      5.339347      2.118327
            50    0       7.149106      7.481152      2.042972
            51    1       9.516347      7.363322      2.192882
            52    1       7.551555      9.437087      2.068342
            53    0       9.661125      5.168661      2.238823
            54    1       7.675225      7.819635      5.069497
            55    0       7.520552      5.413648      4.578911
            56    0       7.465027      7.616631      7.218387
            57    1       4.983797      7.472692      7.039191
            58    1       7.144957      4.970547      7.080390
            59    0       9.746464      5.352161      7.339562
            60    0       5.198696      7.525507      5.047726
            61    0       7.302322      5.272090      9.902138
            62    0       4.980404      7.666212      9.226752
            63    1       7.321363      7.639319      9.834425
            64    1       9.847793      4.872187      9.856516
            65    1       9.484919      9.508323      9.606296
 Feature   MV_grade	1.270489
 Feature   ind	10304
 Feature   selected_eqn_inds	0
END_CFG

BEGIN_CFG
 Size
    65
 Supercell
         9.983725      0.000000      0.000000
         0.000000      9.983725      0.000000
         0.000000      0.000000      9.983725
 AtomData:  id type       cartes_x      cartes_y      cartes_z
             1    1       4.304330      2.319149      2.562721
             2    1       2.893962     -0.224750      2.140651
             3    1       4.937876      0.602738     -0.243385
             4    1       2.325497      4.650071      2.232973
             5    0       2.056121      2.416870      2.257909
             6    1       1.987023      3.072299      0.172730
             7    1       2.505609      2.523831      5.006451
             8    0       2.620620     -0.248531      4.342908
             9    0       4.641407      2.551484      4.675807
            10    1      -0.519085     -0.040850      4.518058
            11    0       2.443383      2.312754      7.449627
            12    1       0.031896      2.461892      7.165393
            13    0      -0.115621     -0.070755      6.840021
            14    1       0.407456      4.401624      9.217360
            15    0       2.281670     -0.022965      9.865377
            16    0       4.409408      2.845197      9.762333
            17    0       4.900746      0.169629      7.401116
            18    1       2.288685      0.030674      7.400453
            19    1       4.962766      2.861669      7.654525
            20    0       4.787938      4.811493      2.389200
            21    0       2.548414      7.391175      1.920690
            22    1       2.145597      7.515288     -0.256607
            23    0       2.410544      4.962047      4.277618
            24    0       0.124861      5.738936      2.311664
            25    1       2.529808      7.275024      4.344675
            26    0       0.202432      7.460405      4.529098
            27    1      -0.013656      5.308321      4.665264
            28    1       4.760029      8.224697      6.547241
            29    0       2.310995      7.624955      6.719929
            30    1       2.464578      5.089077      6.831536
            31    0       4.827238      5.575407      7.263843
            32    1      -0.293365      7.408810      6.986882
            33    0       0.115987      4.895784      7.042411
            34    1       4.387442      5.670734      5.024543
            35    0       2.600702      5.128142      9.521049
            36    0       9.797399      0.538918      2.136377
            37    1       9.481995      2.919236      2.431833
            38    0       7.032269      3.203275      2.219907
            39    0       7.375525      0.503225     -0.178618
            40    0       4.933403      0.359020      2.444235
            41    0       7.272426     -0.035730      4.458516
            42    1       7.226615      2.907550      4.564512
            43    0       9.611770      2.501108      4.512698
            44    1       7.380694      1.040181      1.907847
            45    0       7.391960      2.545378      7.181270
            46    1       6.879386      0.461008      6.869736
            47    1       5.182157      0.584429      4.922159
            48    1       7.589608      2.974737      9.877192
            49    0       9.705383      2.520869      9.598313
            50    1       9.995095      0.310393      9.295265
            51    1       7.884867      4.991763      7.516041