BEGIN_CFG
 Size
    65
 Supercell
        10.037762      0.000000      0.000000
         0.000000     10.037762      0.000000
         0.000000      0.000000     10.037762
 AtomData:  id type       cartes_x      cartes_y      cartes_z
             1    0       2.410108      3.074494      2.061899
             2    1       2.610793      0.612270      2.085804
             3    0       4.663657      0.347984      1.651389
             4    0      -0.065222      0.363744      1.935612
             5    1       0.104589      2.364266      2.023238
             6    1       4.453719      2.952138      2.123906
             7    0       4.798529      2.522944      4.884970
             8    0       2.334903      0.561615      4.199006
             9    0       2.159319      2.602644      7.090953
            10    1       2.523890      0.211498      6.756008
            11    0       4.654338      0.900897      6.703173
            12    1       0.144344      3.390924      6.542739
            13    1       1.294092      2.495003      4.801274
            14    0       2.224466      0.754736      9.010209
            15    1       2.486546      2.777767      9.781414
            16    0       4.839214      2.419866      9.951207
            17    0       0.287009      2.695024      9.624814
            18    0       2.425505      7.990446      2.036328
            19    1       2.609732      5.435967      1.774110
            20    0       0.135270      5.195151      1.843876
            21    1      -0.344234      5.622984     -0.463871
            22    1       4.634663      5.586096      4.540922
            23    0       2.476950      5.397566      4.376406
            24    1       2.491306      8.361665      4.442654
            25    1      -0.136154      5.280114      4.055923
            26    1       4.274118      9.999672      4.081520
            27    0       2.104779      7.899203      6.379622
            28    1       2.501650      5.384369      6.567294
            29    1      -0.251643      7.741506      7.086026
            30    0       0.045846      7.913719      9.342500
            31    0       2.497538      5.594800      9.431246
            32    1       2.571582      8.110391      9.216637
            33    1       4.872274      5.375785      9.747328
            34    0       7.231545      2.661300      2.142316
            35    1       6.776785      3.432983     -0.037640
            36    1       7.758263      0.589158      1.373929
            37    0       9.208130      2.538559      4.415289
            38    1       6.597413      3.405107      4.164520
            39    1       9.600320      0.359319      4.157654
            40    1       7.213547      1.443052      5.843447
            41    0       9.190496      0.573849      6.253911
            42    1       4.965004      3.549869      7.488058
            43    0       7.351626      3.137262      7.162136
            44    0       6.437975     -0.102220      5.134788
            45    0       7.669936      0.251070      9.052787
            46    1       8.808294      1.738044      8.261075
            47    1       4.894183      0.492269      8.765271
            48    1      10.085462      0.029866      9.833123
            49    0       4.876224      5.485988      1.897615
            50    0       7.182450      8.510488      1.803531
            51    1       7.325769      5.180524      2.074205
            52    1       4.935464      8.064673      1.872772
            53    1       9.900661      8.054751      2.021398
            54    0       7.242677      5.372830     -0.049623
            55    0       7.690306      5.546998      4.445126
            56    0       4.941067      7.698200      4.562984
            57    1       7.231012      7.882346      4.470371
            58    0       9.739802      8.000331      4.115719
            59    0       7.541376      8.267003      6.967440
            60    0       5.324080      5.667016      6.860694
            61    0       9.818213      5.359282      6.944675
            62    1       5.335450      7.919038      6.795399
            63    1       7.980607      5.556229      6.566730
            64    0       5.232610      7.858112      9.416765
            65    1       7.699080      8.057822      9.478459
 Feature   MV_grade	1.224237
 Feature   ind	628064
 Feature   mindists	{(0,0):2.440838,(0,1):1.868576,(1,1):2.270968}
 Feature   selected_eqn_inds	0
END_CFG

BEGIN_CFG
 Size
    65
 Supercell
        10.154763      0.000000      0.000000
         0.000000     10.154763      0.000000
         0.000000      0.000000     10.154763
 AtomData:  id type       cartes_x      cartes_y      cartes_z
             1    0       1.991232      3.034157      1.782402
             2    1       2.350600      0.732691      1.765191
             3    0      -0.115578      0.120031      1.742336
             4    1      -0.358613      2.483779      1.768137
             5    0       2.012368      0.594381      4.455414
             6    0       4.633249      2.926285      4.496518
             7    0      -0.213798      2.573891      4.162001
             8    1       2.514318      3.265686      4.322059
             9    0       4.688706      0.655990      7.319098
            10    1       2.394948      0.433493      7.081034
            11    1       4.589782      3.143230      6.623396
            12    1       0.077536      2.247740      6.516987
            13    0       2.215899      2.571542      7.382764
            14    1       1.864217      2.694287      9.699479
            15    0       2.540103      0.290443      9.783799
            16    0       4.585290      2.765531      9.948084
            17    0       1.915028      7.751597      1.971072
            18    1       2.008470      5.292523      1.932651
            19    1      -0.112254      7.825460      1.716006
            20    1       0.154887      5.010083     -0.325376
            21    0       2.404102      5.433647      4.082553
            22    1       2.106931      8.408431      4.534057
            23    0       4.126817      8.593750      3.346346
            24    0       2.601922      8.114614      7.243180
            25    0       0.286350      5.655544      6.944326
            26    1       2.649889      5.277477      6.941214
            27    1       0.010062      5.954167      4.789546
            28    0       2.253043      5.223116      9.572878
            29    1       4.678115      7.472188      7.531014
            30    1       2.937309      8.411296      9.149319
            31    0      -0.012860      7.701447      9.204640
            32    1       0.079464      9.824108      9.544067
            33    1       5.324657      2.309157      1.850115
            34    0       7.433225      3.242107      1.880116
            35    0       5.366093      0.217600      2.005450
            36    0       9.463846      4.864296      1.950492
            37    1       7.307611      0.170211      1.984409
            38    0       7.787317      0.536121      4.611103
            39    1       7.548753      2.975882      4.453963
            40    1       5.227809      0.209493      4.358839
            41    1       4.750370      4.333883      3.211005
            42    1       9.983657      0.595454      4.108847
            43    1       6.950266      0.859205      7.290502
            44    0       7.474833      3.146272      6.499182
            45    0       9.496632      0.590127      7.174883
            46    1       7.332341      2.586937      9.608099
            47    0       7.419957      0.285952      9.653474
            48    0       9.279346      2.887619      9.386673
            49    1       5.113718      0.142281     10.083539
            50    1       7.293653      5.498485      1.745834
            51    0       7.596390      7.691375      1.986740
            52    0       5.148197      5.140404      1.455278
            53    1       5.543657      7.664971      1.927125
            54    0       7.345713      5.436903      4.507869
            55    1       7.418278      8.044366      4.293613
            56    1       4.699307      7.322449      4.633808
            57    0       9.929426      8.195201      4.691164
            58    0       7.071211      8.008265      6.943231
            59    1       7.479812      5.613998      6.623934
            60    1       9.770195      7.932524      6.936632
            61    0       4.851475      5.484750      6.927093
            62    0       5.250828      7.698708      9.516559
            63    0       7.331514      5.336751      8.941362
            64    1       7.392169      8.013004      9.624029
            65    1       4.962004      5.012368      9.199877
 Feature   MV_grade	1.456784
 Feature   ind	635846
 Feature   mindists	{(0,0):2.548975,(0,1):1.897764,(1,1):2.506261}
 Feature   selected_eqn_inds	0
END_CFG

BEGIN_CFG
 Size
    65
 Supercell
        10.384052      0.000000      0.000000
         0.000000     10.384052      0.000000
         0.000000      0.000000     10.384052
 AtomData:  id type       cartes_x      cartes_y      cartes_z
             1    0      -0.040558      0.429436      1.522430
             2    0       2.219755      2.831148      1.828734
             3    0      -0.090759      3.715690     -0.280803
             4    1       1.057773      4.656542      0.859812
             5    1       1.336882      0.045794      0.005514
             6    0       1.992111      0.284882      4.823737
             7    1       2.673380      3.282880      3.625508
             8    0       0.007853      2.203494      4.711913
             9    0       4.616118      2.997790      4.187253
            10    1       2.253982      0.215905      2.292787
            11    1       4.604627      0.829457      4.579954
            12    0       1.964474      3.471712      6.519117
            13    1       0.302723      1.379519      7.148519
            14    0       4.538441      0.722258      6.977603
            15    1       2.267358      2.385807      8.658324
            16    1       0.982486      4.713990      8.352688
            17    0       1.507191      0.495380      8.546772
            18    0       4.868073      2.773993      8.792916
            19    0       2.748316      8.472166      1.962800
            20    1       4.557418      4.974910     -0.160177
            21    1      -0.047378      9.046732      2.058196
            22    0       2.623224      5.694950      3.779971
            23    1       4.654579      6.623204      2.758281
            24    0       4.588967      8.320304      4.614843
            25    0      -0.211681      7.987976      4.127819
            26    1       2.304056      7.818123      3.948118
            27    1       1.511196      5.938080      6.134254
            28    0       1.784605      7.666957      7.054824
            29    1       0.489585      9.563858      5.302344
            30    0       2.577065      5.970956      9.892371
            31    1       2.800866      8.141202      9.956631
            32    0       0.642945      7.919884      9.985504
            33    1       6.757413      0.389225      1.350570
            34    0       7.547664      2.344609      1.440380
            35    0       5.218640      4.754378      1.881078
            36    1       4.936585      2.561915      1.364268
            37    0       4.978857      0.071486      1.560457
            38    1      10.142635      2.691636      1.616911
            39    0       7.135111      0.618750      4.186080
            40    1       7.060916      3.960806      3.004174
            41    0       7.458410      4.286907      4.832282
            42    1       5.021406      3.907768      6.994545
            43    1       8.356023      1.933620      5.300376
            44    1       9.622074      4.330329      5.960589
            45    0       8.557191      2.354327      7.900084
            46    1       7.243904      3.176869      8.760900
            47    1       5.169675      0.357687      9.740761
            48    1       9.005874      1.370855      9.908328
            49    0       9.358637      5.218059      2.200640
            50    1       6.893522      6.593091      1.022369
            51    1       8.058934      9.172245      4.267353
            52    1       7.847579      6.147161      4.107480
            53    0       6.636619      7.633299      3.281050
            54    0       9.397975      9.541876      7.309548
            55    1       9.489532      7.765051      6.234942
            56    0       6.371792      7.956172      6.110251
            57    0       5.063294      5.694336      6.425320
            58    1       6.213701      9.976045      6.903833
            59    0      10.003923      5.903708      7.314526
            60    0       5.088145      7.674517     10.055264
            61    0       6.989619      5.421531      9.546622
            62    1       8.243831      8.297542      8.676347
            63    1       6.161942      7.193516      8.223886
            64    1       9.224486      5.689383     10.122981
            65    0       7.310842      9.909703      9.683345
 Feature   MV_grade	1.204406
 Feature   ind	987942
 Feature   mindists	{(0,0):2.355271,(0,1):1.772654,(1,1):2.399553}
 Feature   selected_eqn_inds	0
END_CFG

BEGIN_CFG
 Size
    65
 Supercell
        10.433895      0.000000      0.000000
         0.000000     10.433895      0.000000
         0.000000      0.000000     10.433895
 AtomData:  id type       cartes_x      cartes_y      cartes_z
             1    1       0.392071      1.588110     -0.143127
             2    0       2.191024      2.613686      1.301605
             3    1       4.096329      3.226058     -0.462196
             4    1       2.334512      2.768886      4.729505
             5    1       4.919154      2.679815      2.377424
             6    0      -0.106584      3.343405      4.437114
             7    0       1.517184      0.841570      4.472390
             8    1       4.511611      1.032118      4.506488
             9    1      -0.072510      2.792964      2.593450
            10    1       2.579233      0.852292      2.617300
            11    0       1.659779      3.502623      7.074364
            12    0       4.239404      3.025118      5.207906
            13    1       1.617833      2.879080      9.095784
            14    0       2.165592      0.453878      9.140584
            15    1       3.257400      5.057595      7.759521
            16    1       3.492289      1.702136      7.656941
            17    0       1.969897      8.773936      1.718193
            18    0       2.741711      4.932085     -0.226442
            19    0       4.570058      7.990577      0.308788
            20    1       0.761320      9.327783      0.186300
            21    0       1.768067      5.408408      3.568826
            22    1       2.485577      7.939025      3.933625
            23    0       4.536482      7.729065      4.145252
            24    1       0.129622      9.935358      2.999529
            25    0       0.352989      8.053853      4.308828
            26    1       4.607456      9.074502      2.724923
            27    1       0.544736      7.063357      6.378169
            28    0       2.584453      7.248585      6.929575
            29    1       3.127540      5.792223      5.207218
            30    0      -0.234067      9.075915      6.479273
            31    1       2.948188      9.321638      7.212928
            32    1       0.627183      5.151381      9.433968
            33    0       0.682120      7.051487      9.233765
            34    1       2.639500      7.410134     10.209050
            35    0       9.797050      0.684322      1.520252
            36    0       6.735989      1.740177      0.409090
            37    0       5.622611      4.738755      2.076443
            38    0       7.965197      0.421158      4.577940
            39    1       6.953147      3.609538      4.351536
            40    0       8.743445      4.400914      2.789872
            41    0       5.057620      0.726703      2.636544
            42    1       7.127400      0.654537      2.832702
            43    1       9.623379      1.770443      5.103438
            44    0       8.367125      2.468239      7.148787
            45    0       4.825883     -0.046392      7.066680
            46    1       6.138936      1.682939      6.375770
            47    1      10.176623      3.943298      7.156154
            48    0       9.799109      3.372182      9.497528
            49    1       7.567819      3.857172      8.767539
            50    0       5.344040      3.036679      8.260612
            51    0       6.505879     -0.342221      9.676575
            52    1       7.451788      7.807258      0.179996
            53    1       7.324332      5.797081      2.430974
            54    1       8.036510      8.949305      4.376194
            55    1       9.713378      5.920258      4.012052
            56    0       8.123912      8.126657      2.384271
            57    0       9.156094      5.644974      6.003355
            58    0       6.484968      5.164589      5.583462
            59    0       7.186671      8.175919      6.797435
            60    1       8.320706     10.224215      6.845794
            61    1       5.181487      5.756700     10.174562
            62    0       7.505960      5.739625      9.614894
            63    1       8.813528      7.315185      8.134296
            64    1       5.800800      8.821520      8.479900
            65    0       4.949632      6.427842      7.716393
 Feature   MV_grade	1.229561
 Feature   ind	988337
 Feature   mindists	{(0,0):2.397883,(0,1):1.847625,(1,1):2.144081}
 Feature   selected_eqn_inds	0
END_CFG

BEGIN_CFG
 Size
    65
 Supercell
        10.601321      0.000000      0.000000
         0.000000     10.601321      0.000000
         0.000000      0.000000     10.601321
 AtomData:  id type       cartes_x      cartes_y      cartes_z
             1    1       2.723798      0.874699      0.936964
             2    0       2.474612      2.731589      0.196905
             3    0       2.125334      0.160626      2.970504
             4    1       2.144489      2.536303      4.021354
             5    1      -0.249972     -0.043551      4.138340
             6    0       4.623125      2.629390      4.726197
             7    0       2.002459      3.288965      6.671842
             8    1       4.613783      4.622023      5.780487
             9    1       4.195117      2.489015      6.848922
            10    1       0.351476      4.542886      5.890865
            11    0      -0.333507      2.369058      4.915410
            12    1       0.739567      1.880260      7.064012
            13    0      -0.173841     -0.089718      7.729502
            14    1       1.994976      4.640790      8.139956
            15    1       4.004253     -0.256922      9.063771
            16    0       2.872920      6.996419      1.828222
            17    0       1.299402      9.409336     -0.195144
            18    1       1.046817      9.252060      1.938186
            19    1       1.773546      7.351446     -0.177332
            20    1       2.452425      5.225054      2.087567
            21    0       0.429278      8.370917      4.631918
            22    1       2.366117      6.998700      4.834416
            23    0       1.383083      5.173736      4.152648
            24    1       3.640204      9.099311      2.619306
            25    1       1.177280      9.058712      7.143722
            26    0       1.177908      6.539696      7.364632
            27    0       4.530078      6.512895      4.871656
            28    0       4.148036      8.040993      8.202902
            29    0       3.061958      5.399103     10.165808
            30    1       3.776322      5.947617      7.996461
            31    1      -0.290260      8.700842      9.559731
            32    1       4.839518      7.067399     10.148927
            33    1       5.093096      4.211557     -0.397932
            34    0       6.169770      1.321191      0.218481
            35    0       9.730184      1.080708      1.817478
            36    1       7.766951      1.765109      1.417288
            37    0       7.936044      2.143698      4.214368
            38    0       8.446685      3.638026      2.310217
            39    0       7.485997      1.982527      6.550410
            40    0       4.946810      0.186116      7.374562
            41    1       8.553049      4.149463      6.397275
            42    0      10.021421      3.774924      8.309278
            43    1       9.422807      1.478153      9.547085
            44    0       5.289341      3.889123      7.850659
            45    1       6.301961      1.706088      8.598906
            46    0       8.228085     -0.410569      9.764414
            47    0       5.875970      4.902468      1.401433
            48    0       9.778895      7.041593      0.387510
            49    1       8.171202      8.597121      1.048690
            50    0       5.212903      9.432045      0.204320
            51    1       7.837421      5.725061      0.655373
            52    0       5.511115      9.352367      3.504382
            53    0       7.550131      7.515361      2.919200
            54    1       5.889523      5.953576      3.165885
            55    1       8.895328      6.191740      2.632899
            56    0       9.830386      5.936573      6.127943
            57    0       7.052374      5.073210      5.175852
            58    0       7.026364      8.833694      6.147595
            59    1       9.188006      7.896315      5.323028
            60    1       7.255742      7.234836      7.196964
            61    1       4.950210     10.137803      5.264437
            62    1       8.741818     10.166735      6.598192
            63    1       6.342558      8.932544      9.175488
            64    0       7.502102      7.149319      9.793034
            65    1       9.890367      6.320918      8.779701
 Feature   MV_grade	1.605744
 Feature   ind	989120
 Feature   mindists	{(0,0):2.384452,(0,1):1.805097,(1,1):2.213951}
 Feature   selected_eqn_inds	0
END_CFG

BEGIN_CFG
 Size
    65
 Supercell
        10.093338      0.000000      0.000000
         0.000000     10.093338      0.000000
         0.000000      0.000000     10.093338
 AtomData:  id type       cartes_x      cartes_y      cartes_z
             1    1       4.410868      2.849581      1.379107
             2    0       2.093378      2.628140      1.924092
             3    0       0.217255     -0.050220      1.422151
             4    0       4.745500      0.214879      1.642578
             5    1       2.429941      0.738939      1.811084
             6    1       0.066144      2.803859      1.676070
             7    0       2.344107      0.425890      4.700047
             8    1       2.475141      2.801131      4.617571
             9    1       0.984129     -0.287736      3.264007
            10    1       4.734819      4.686003      4.187348
            11    0       2.576104      3.295779      6.800923
            12    0       4.567324      0.386352      7.225474
            13    0      -0.033462      0.316861      7.270589
            14    1       1.923698      0.712581      6.832819
            15    1      -0.133269      3.317741      7.167232
            16    1       4.210683      0.991842      5.228436
            17    1      -0.245700      0.769310      9.179645
            18    1       4.848481      0.770923      9.453814
            19    0       4.753176      3.082087      9.243065
            20    1       1.675901      3.436914      9.623433
            21    0       2.259814      0.192781      9.713174
            22    0       2.095719      7.388128      1.724890
            23    1       1.696490      7.740444      4.514610
            24    0       2.324120      5.177490      4.767101
            25    0       0.295559      5.301770      2.315055
            26    0       4.810370      7.755328      4.301750
            27    1       2.714866      5.503017      2.844782
            28    0       4.740133      5.417183      7.097827
            29    0       2.411998      7.746869      7.000460
            30    1       3.540538      6.355138      5.656398
            31    0       2.148423      5.903596      9.824193
            32    0       4.752427      8.469924      9.609236
            33    1       2.582907      7.854927      9.302457
            34    1       4.828085      5.407809      9.959556
            35    1       1.642032      5.807804      7.794686
            36    1       4.683533      7.926691      7.675727
            37    0       7.291513      2.882194      2.194760
            38    0       7.305350      0.478647     -0.178516
            39    1       7.424295      0.640204      1.838598
            40    1       6.958480      2.899029      0.187630
            41    0       7.259986      0.152140      4.632461
            42    0       9.774678      2.942142      4.169833
            43    0       5.206259      2.857340      4.633915
            44    1       7.389125      3.161027      3.939949
            45    1       7.424889      0.418681      7.379578
            46    0       7.401064      2.841423      6.902425
            47    1       4.886463      3.131750      6.674581
            48    0       9.898391      3.083596      9.497044
            49    0       7.270224      7.987555      1.665570
            50    1       7.887207      5.736720      1.792052
            51    1       9.410065      8.219293      1.652189
            52    0       4.884123      5.284078      1.733939
            53    1       5.048951      7.444559      1.947241
            54    0       7.138175      5.455590      4.245724
            55    1       7.126149      8.053804      4.420512
            56    0       9.571256      7.657734      4.268603
            57    1       9.371975      5.154277      4.617767
            58    1       7.313236      5.016096      6.859429
            59    0       9.615225      5.203545      6.978574
            60    0       7.168878      8.112442      7.129085
            61    1       9.459938      8.115509      7.070672
            62    0       7.356802      5.676839      9.841156
            63    0       9.829376      7.780861      9.168342
            64    1       7.452164      8.269556      9.520729
            65    1       9.225246      5.803510      9.261080
 Feature   MV_grade	1.338242
 Feature   ind	581743
 Feature   mindists	{(0,0):2.486521,(0,1):1.770017,(1,1):2.292470}
 Feature   selected_eqn_inds	0
END_CFG

BEGIN_CFG
 Size
    65
 Supercell
        10.008463      0.000000      0.000000
         0.000000     10.008463      0.000000
         0.000000      0.000000     10.008463
 AtomData:  id type       cartes_x      cartes_y      cartes_z
             1    0       2.298944      3.130331      2.259325
             2    1       2.340873      0.510113      2.333826
             3    0       4.879635      0.257811      2.283355
             4    0       0.085922      0.242931      2.040379
             5    1       0.327487      2.751804      2.226573
             6    0       2.226798      0.200068      4.626529
             7    1       1.634454      2.566200      4.670209
             8    0       4.522648      2.626529      3.893820
             9    1       4.893706      0.205339      4.660529
            10    1      -0.060475     -0.187527      4.276388
            11    0       1.464890      2.790748      7.164254
            12    0       4.468879      0.145849      6.851948
            13    1       2.403271      0.939782      6.923803
            14    0       2.452762      0.577192      9.359997
            15    1       2.600751      3.187748      9.549445
            16    1       0.274106      0.529357      9.366434
            17    0      -0.029694      5.613430      1.859449
            18    1       2.498289      5.821837      1.741611
            19    0       2.473047      7.969712      2.280116
            20    0       2.465127      5.435930      4.382440
            21    1       2.247933      7.371716      4.500300
            22    0       4.905679      7.909730      4.355570
            23    1       0.033205      5.498580      3.886063
            24    0       2.099422      7.829331      6.900129
            25    0       0.369168      5.339584      7.265069
            26    1       2.271272      5.462486      6.899615
            27    0       2.368293      5.436907      9.614335
            28    1       3.416173      6.792951      8.357675
            29    1       2.006078      8.598875      9.455087
            30    1      -0.076854      5.690657      9.384604
            31    0       4.709427      7.663821      9.689348
            32    0       7.661369      2.809819      1.801484
            33    1       7.543197      0.518868      2.155413
            34    1       4.983091      3.183120      1.769370
            35    1       5.716237      0.509340     -0.023726
            36    0       7.458842      0.471145      4.463807
            37    1       6.970568      3.057508      4.629875
            38    0       9.687065      2.328711      4.136684
            39    0       9.295268     -0.067888      7.136319
            40    0       7.336957      3.007737      6.958273
            41    1       6.506893      0.622378      7.306058
            42    1       9.137577      1.955345      7.000698
            43    0       7.675905      0.652228      9.696962
            44    1       7.512851      3.259098      9.370717
            45    0       5.118750      3.247703      9.521188