BEGIN_CFG
 Size
    65
 Supercell
         9.975341      0.000000      0.000000
         0.000000      9.975341      0.000000
         0.000000      0.000000      9.975341
 AtomData:  id type       cartes_x      cartes_y      cartes_z
             1    1       2.092637      4.869065      2.300679
             2    1      -0.113007      2.555925      2.302941
             3    0       0.074366      4.865646      2.298576
             4    1       2.337223      0.567273      1.995724
             5    1       4.789402     -0.086889     -0.197755
             6    0       2.432433      2.875315      2.278674
             7    0       4.779410      0.466016      2.548133
             8    1       2.438935      1.945928      4.761025
             9    0       4.571631      2.708086      4.775964
            10    0       1.970128      0.015227      4.826281
            11    0       2.466099      2.547786      7.104441
            12    1      -0.003566      2.328693      6.964384
            13    1       2.745465      0.306302      7.197858
            14    0      -0.010863      2.782986      9.303698
            15    1       2.626911      2.565530      9.395886
            16    0       0.309961      0.009822      7.531823
            17    0       2.613718      0.015357      9.771110
            18    1      -0.069927      0.688952      9.682265
            19    0       2.294249      7.401142      2.042161
            20    0       4.841950      4.959379      1.926171
            21    0       0.139541      7.528699      0.063891
            22    1       0.150871      7.789786      2.188722
            23    0       2.230227      5.171705      4.772700
            24    1       2.014396      7.309073      4.705514
            25    0       4.831444      7.913831      4.652001
            26    1       4.633968      4.872646      4.327956
            27    1       4.596621      8.468744      2.746970
            28    0       2.218882      7.829111      7.052412
            29    0       4.705670      4.993835      6.898876
            30    1       2.406341      5.471196      6.657065
            31    1       2.351935      7.349776      9.617072
            32    0       2.403256      5.070228      9.543038
            33    1       0.011968      5.499976      9.830723
            34    1       5.140009      2.751621      1.600206
            35    1       7.197278      0.585125      2.417216
            36    0       7.439648      2.760963      2.207749
            37    1       7.802154      4.779304      2.106641
            38    1       4.843804      0.549034      4.699946
            39    1       7.291046      2.863221      4.510897
            40    0       9.499188      0.294605      2.383366
            41    0       7.508181      0.246837      4.783983
            42    0       7.192906      2.266545      6.930957
            43    1       7.311108      4.498132      6.680804
            44    0       4.921258      0.037803      6.796026
            45    0       9.756102      2.713720      4.916531
            46    0       7.666377      0.270347      9.459150
            47    0       5.117922      2.403993      9.579888
            48    1       7.621969      3.247848      9.454968
            49    1       4.820491      2.783666      7.402982
            50    0       7.396127      7.900085      1.994416
            51    0       7.121717      5.250564      4.694943
            52    1       6.920642      5.645709      2.222589
            53    0       9.505220      7.472603      4.472284
            54    1       9.742792      5.183457      4.875532
            55    1       9.637435      9.473474      4.840433
            56    1       7.072749      8.020576      4.769084
            57    0       9.790401      5.042056      7.177738
            58    0       7.446718      7.681607      7.132338
            59    1       7.375036      9.851201      7.022884
            60    1       5.070699      7.467689      6.899553
            61    1       9.742142      7.478144      7.280705
            62    1       7.668672      7.843054      9.235186
            63    0       4.926825      7.556227      9.526839
            64    0       7.611741      5.192050      9.374818
            65    1       4.947936      4.974849      9.180648
 Feature   MV_grade	2.618392
 Feature   ind	3036
 Feature   mindists	{(0,0):2.919311,(0,1):1.916127,(1,1):1.241437}
 Feature   selected_eqn_inds	0
END_CFG

BEGIN_CFG
 Size
    65
 Supercell
         9.786416      0.000000      0.000000
         0.000000      9.786416      0.000000
         0.000000      0.000000      9.786416
 AtomData:  id type       cartes_x      cartes_y      cartes_z
             1    0       2.409188      2.559605      2.195247
             2    1       2.403866      0.141859      2.113195
             3    1       0.155673      2.894350      1.807283
             4    0       4.882681      0.220800      2.087464
             5    0       0.028176      0.245664      2.132475
             6    0       4.812296      2.654398      4.630259
             7    1       2.639066      2.618960      4.394135
             8    1       4.839454      0.033967      4.457600
             9    0       2.385717      0.151576      4.673468
            10    0      -0.063142      2.725282      4.660515
            11    0       2.466585      2.676652      7.055550
            12    0       0.014024      0.149038      7.184397
            13    1       2.637103      0.019053      7.057565
            14    1       5.056458      2.846092      7.255600
            15    0       4.866350      0.191347      7.051319
            16    1       2.365935      2.365195      9.427343
            17    0       4.884861      2.738664      9.615666
            18    1       0.127042      0.116675      9.702143
            19    0       2.394879      0.259017      9.512836
            20    0      -0.081253      2.609844      9.548000
            21    0       2.280525      7.570525      2.192051
            22    0      -0.060217      5.168980      2.246413
            23    1       2.451139      5.062141      2.136863
            24    1       4.626044      7.625104      2.206062
            25    0       4.934436      5.048989      2.201544
            26    0       2.399915      5.215968      4.685283
            27    0       4.922816      7.536936      4.646949
            28    1       2.357962      7.506163      4.535166
            29    1       0.083159      5.096752      4.941079
            30    0      -0.060375      7.622744      4.663373
            31    0       2.449184      7.561029      7.103142
            32    1       2.355242      4.976060      7.047284
            33    0       0.018422      5.088042      7.098382
            34    0       4.782560      5.110034      7.218648
            35    1      -0.112278      7.727568      7.306209
            36    0       2.363566      5.088568      9.440423
            37    0      -0.020647      7.595234      9.490420
            38    1       2.339737      7.524171      9.836667
            39    1       4.797866      5.398036      9.513880
            40    0       4.920887      7.596786      9.562854
            41    0       7.388753      2.715292      2.130596
            42    1       7.349819      0.191829      2.546234
            43    1       4.660949      2.667807      2.342909
            44    1       7.482526      2.861122      4.106752
            45    0       7.343681      0.211035      4.740291
            46    1       9.741874      0.494928      4.437817
            47    1       9.667170      3.050300      6.645049
            48    1       6.221980      1.421454      5.850864
            49    0       7.303381      2.695055      7.123261
            50    1       7.323883     -0.142654      7.224264
            51    1       4.769410      0.423922      9.531695
            52    1       7.450139      2.962244      9.415968
            53    0       7.328064      0.131489      9.565746
            54    0       7.375953      7.597889      2.210937
            55    1       6.931950      5.083608      2.093620
            56    1       9.775727      7.531949      2.396392
            57    1       7.204231      7.416219      4.779817
            58    0       7.386399      5.141491      4.636767
            59    1       5.024566      5.163451      4.944352
            60    1       7.144071      5.037719      7.082154
            61    0       7.350506      7.478842      7.031357
            62    1       4.859724      7.758034      7.108444
            63    0       7.300352      5.195579      9.580009
            64    1       7.488334      7.570670      9.687750
            65    1       9.557031      4.818891      9.531395
 Feature   MV_grade	1.334252
 Feature   ind	304
 Feature   mindists	{(0,0):3.284551,(0,1):1.983747,(1,1):2.315452}
 Feature   selected_eqn_inds	0
END_CFG

