BEGIN_CFG
 Size
    65
 Supercell
        10.011645      0.000000      0.000000
         0.000000     10.011645      0.000000
         0.000000      0.000000     10.011645
 AtomData:  id type       cartes_x      cartes_y      cartes_z
             1    0       2.246577      2.795765      2.205712
             2    1       0.080000      2.112936      2.212357
             3    0      -0.075574     -0.073226      1.924095
             4    1       2.419973      0.509443      2.057937
             5    1       2.186294      2.937899      4.564931
             6    0       2.557193      0.421088      4.887199
             7    0       4.568248      2.907410      4.669424
             8    0      -0.084642      2.512937      4.488982
             9    1       0.200330      4.610951      4.569819
            10    1       0.227732      0.268028      4.265353
            11    0       2.424700      2.579809      7.055276
            12    1       0.510812      2.957613      6.489871
            13    1       2.401246      0.473581      7.127159
            14    0      -0.066569      0.089871      6.960719
            15    0       4.670000     -0.071294      7.294184
            16    1       2.385420      2.680334      9.866426
            17    0       0.001649      2.653872      9.659154
            18    0       4.803398      2.353995      9.695748
            19    1      -0.028704      4.974283      9.310856
            20    0       2.101476      0.355849      9.610803
            21    1       4.793627      2.812545      7.470489
            22    0       2.185199      7.588944      2.282241
            23    1       2.383945      5.163497      2.557571
            24    0       0.129388      5.039156      2.056458
            25    1       2.365547      7.909856      4.507843
            26    0       2.295773      5.182801      4.712675
            27    0       4.756950      7.642914      4.670621
            28    0       0.162652      7.299887      4.496909
            29    1       4.662742      5.255960      4.812784
            30    0       2.112652      7.671095      7.315378
            31    1       3.028847      5.202200      6.822877
            32    0      -0.010915      5.112889      6.922366
            33    1       4.523876      7.855940      7.008658
            34    0       2.284934      5.053905      9.705101
            35    1       2.321320      8.372933      9.941699
            36    0       0.304175      7.267584      8.714178
            37    0       4.397761      7.528967      9.597982
            38    1       4.886615      5.005962      9.419970
            39    1       7.536367      0.448253      1.980813
            40    0       7.082221      2.842646      1.899114
            41    0       4.848405      0.062087      2.332257
            42    1       7.393093      2.883844      3.715780
            43    0       7.344235      0.014153      4.591369
            44    1       5.137677      2.516200      2.444545
            45    0       7.043550      2.406456      7.184169
            46    1       8.506645      1.455599      5.791282
            47    1       5.082446      0.155090      5.114043
            48    1       7.741992      2.426676      9.573088
            49    1       7.670062      5.240002      2.072246
            50    0       4.987265      5.277112      2.034167
            51    0       7.332435      7.921542      1.883197
            52    1       4.874781      7.902827      1.712065
            53    1       9.725506      7.587404      1.893231
            54    1       6.963060      8.024969      4.005319
            55    0       7.055543      5.194006      4.361377
            56    0       5.173083      5.105551      7.250519
            57    0       7.035883      7.515470      6.903694
            58    1       8.819254      7.486395      6.180764
            59    1       7.850737      5.096103      7.294564
            60    0       7.729066      5.288803      9.462675
            61    1       7.760166      7.476568      9.094568
            62    0       7.565616      9.667043      9.713213
            63    1       9.626131      9.127859      9.500590
            64    1       5.110018      9.534875      9.187724
            65    1       7.001750      9.817118      7.510042
 Feature   MV_grade	1.427525
 Feature   ind	157953
 Feature   selected_eqn_inds	0
END_CFG

BEGIN_CFG
 Size
    65
 Supercell
        10.040777      0.000000      0.000000
         0.000000     10.040777      0.000000
         0.000000      0.000000     10.040777
 AtomData:  id type       cartes_x      cartes_y      cartes_z
             1    1       2.390320      0.551126      1.465531
             2    0       2.663982      2.762892      1.972873
             3    1       0.123944      2.756010      2.046760
             4    0       4.827961      2.520408      4.500302
             5    1       4.528943      0.086372      4.536545
             6    0      -0.057030      2.383944      4.673730
             7    0       2.190451      0.054656      4.683377
             8    1       4.839421      2.596514      7.134210
             9    1       2.437779      2.485565      4.780615
            10    0       4.747297      0.205154      7.260891
            11    1       2.299740     -0.116108      7.176821
            12    0       2.428220      0.475012      9.512808
            13    1       2.308149      2.641564      9.555220
            14    0       2.239663      2.612429      7.314681
            15    1      -0.077390      0.375665      9.259810
            16    0       0.089595      5.146086      2.334431
            17    1       2.869316      5.286384      1.927245
            18    1      -0.206103      7.890790      2.535532
            19    1       2.452569      7.774589     -0.179843
            20    0       2.555258      7.598689      2.469096
            21    1       2.415158      7.876083      4.845364
            22    1       4.671708      4.943027      4.603183
            23    1       2.548510      9.807230      2.421705
            24    0       2.269483      5.511018      5.241956
            25    1      -0.147869      5.610859     10.055428
            26    0       2.477516      5.411201      9.775328
            27    0       2.233473      7.607961      7.679759
            28    0       0.016805      7.956106      9.401357
            29    1       1.970002      5.023570      7.517125
            30    0       7.744962      2.470996      2.358423
            31    0       5.079308      0.142370      2.182161
            32    0       9.840415      0.481991      1.860632
            33    1       5.305189      2.780993      1.820218
            34    1       9.586420     -0.465260      4.459574
            35    1       7.383034      2.578566      4.372199
            36    1       9.807373      5.116259      4.795069
            37    1       7.373748      4.566587      2.660371
            38    1      10.051604      2.511989      7.136455
            39    0       7.684553      2.455901      6.913598
            40    0       9.663406     -0.056099      6.918172
            41    1       6.718949      0.342875      6.781245
            42    0       4.878411      2.785056      9.397484
            43    0       7.279270      0.163357      9.720422
            44    1       7.547907      2.586417      9.672929
            45    0       9.897375      2.708360      9.346304
            46    1       4.902776      0.238307      9.676547
            47    0       7.737271      7.274459      1.870760
            48    0       5.203611      5.028498      1.973133
            49    1       5.080055      7.503525      1.800479
            50    1       7.285464      9.718722      1.877574
            51    1       7.569730      7.236984      4.202919
            52    0       7.000411      4.886566      4.753161
            53    0       7.362506      9.651597      4.065610
            54    0       9.807627      7.367694      4.483233
            55    0       5.003097      7.537629      4.773582
            56    0       9.686109      5.226981      6.910190
            57    1       9.892839      8.027353      6.745599
            58    0       7.299438      7.467810      6.786829
            59    0       4.847263      4.732673      7.036882
            60    1       4.526969      7.416523      7.363884
            61    1       7.239446      5.255709      7.240727
            62    0       7.525115      4.994467      9.564670
            63    1       5.016009      5.461857      9.623185
            64    0       5.044186      7.708708      9.537725
            65    1       7.865257      7.531574      9.320697
 Feature   MV_grade	1.213915
 Feature   ind	291408
 Feature   selected_eqn_inds	0
END_CFG

BEGIN_CFG
 Size
    65
 Supercell
         9.998267      0.000000      0.000000
         0.000000      9.998267      0.000000
         0.000000      0.000000      9.998267
 AtomData:  id type       cartes_x      cartes_y      cartes_z
             1    1       2.811517      0.154953      1.783954
             2    1       2.165463      2.219245      0.169990
             3    1       0.198424      0.293786     -0.055084
             4    0       0.081549      0.448811      2.324021
             5    1       4.374428      4.816531      4.803074
             6    0       2.652205      2.290099      2.534206
             7    0       1.947463      0.294062      4.738540
             8    1       2.362670      3.002764      4.708796
             9    1      -0.106409      0.062683      4.538175
            10    0       2.400504      2.529760      7.316052
            11    1       2.509923     -0.094310      7.092958
            12    0       4.700876      4.844406      6.958247
            13    1       4.534463      2.404741      7.298180
            14    0       2.457975      0.258870      9.261359
            15    0       2.466773      4.610993      9.690627
            16    0      -0.118965      2.541836      9.704645
            17    0       2.189191      7.743290      1.884643
            18    1       2.229287      5.164658      2.024631
            19    1       4.486581      7.451952      1.971403
            20    0       4.579559      5.238796      1.840299
            21    0       0.010411      5.162737      1.853592
            22    1      -0.005671      7.989420      1.845960
            23    0       2.022002      5.057423      4.671140
            24    1       2.680039      7.616311      4.634135
            25    1       4.855598      7.950499      7.065581
            26    0       2.077126      7.803846      6.974668
            27    0       0.083822      8.102448      9.630334
            28    1       2.573969      7.578874      9.777401
            29    1       0.083655      7.182987      7.431763
            30    1       2.020487      5.085753      7.693357
            31    0       7.281154      2.565190      2.003147
            32    0       7.534134      0.044281      0.039446
            33    0       4.944208      0.027307      2.172782
            34    1       7.804201      0.096423      2.329719
            35    1       7.513759      2.676608      4.595256
            36    0       7.445771      0.453179      4.507682
            37    0       9.590997      2.659210      4.779850
            38    1       5.220678      2.749500      2.359336
            39    0       5.172332      2.588872      4.850252
            40    1       9.793911      2.713208      2.442877
            41    0       7.261844      2.443115      7.148458
            42    0       9.618565      0.618785      7.050270
            43    0       5.038632      0.214239      7.194922
            44    1       9.676441      2.938124      7.235072
            45    1       7.179472      0.133946      7.222751
            46    0       4.885138      2.217887      9.654950
            47    1       7.586474      2.960421      9.669599
            48    0       7.465179      7.604885      2.012795
            49    1       7.212528      5.592813      1.532154
            50    1       4.929240      5.726904      4.282214
            51    0       9.545639      7.584041      4.440617
            52    0       7.392418      5.237595      4.360687
            53    1       5.225215      9.831889      4.245173
            54    0       4.895612      7.880227      4.423183
            55    1       9.463367      5.172479      4.686296
            56    0       7.118524      7.245070      7.187028
            57    0       9.764123      5.206895      7.217435
            58    1       7.392610      4.962310      6.838103
            59    1       7.268140      7.849392      4.937268
            60    0       7.334446      5.097287      9.102259
            61    1       4.919317      4.942490      8.831381
            62    1       7.115677      7.931342      9.684394
            63    0       4.896495      7.568054      9.398997
            64    1       9.833421      5.321566      9.516581
            65    1       4.908150      9.791993      9.616913
 Feature   MV_grade	1.497308
 Feature   ind	41479
 Feature   selected_eqn_inds	0
END_CFG

BEGIN_CFG
 Size
    65
 Supercell
         9.962718      0.000000      0.000000
         0.000000      9.962718      0.000000
         0.000000      0.000000      9.962718
 AtomData:  id type       cartes_x      cartes_y      cartes_z
             1    0       0.045708      0.071388      2.375986
             2    0       4.873672      0.473306      2.200779
             3    0       2.585253      2.402770      2.002484
             4    1      -0.151134      2.724795      1.987452
             5    1       5.146829      2.641271      1.564032
             6    1       2.381505      4.988627      2.131785
             7    0       0.078050      4.705868      1.997297
             8    1       2.447701      0.028712      2.145143
             9    0       2.624683     -0.048668      4.657015
            10    1       2.114134      2.306076      4.166384
            11    0       2.269544      2.543907      7.163270
            12    1       4.751380      2.706858      7.153394
            13    0      -0.020414     -0.027239      6.801031
            14    0       4.458565      0.010085      7.389832
            15    0       4.578205      2.888418      5.018255
            16    1       4.886335     -0.227672      5.036511
            17    0       2.204267      0.286946      9.721646
            18    0       4.982753      2.892462      9.385550
            19    0      -0.238594      2.297492      9.151124
            20    1       2.862884      2.612027      9.867031
            21    0       2.580005      7.453391      2.052699
            22    1       0.428925      7.259299      1.852654
            23    0       4.758370      4.987264      1.645067
            24    0       4.636620      7.738686     -0.089163
            25    1       2.702238      7.701951      4.484860
            26    0       0.045983      7.415095      4.456909
            27    1       5.013673      4.943354      4.752798
            28    0       2.389975      5.130495      4.531701
            29    1       0.012547      9.894942      4.427832
            30    0       1.977324      7.540852      7.284636
            31    1       2.202131     10.045594      7.284805
            32    0       4.668806      5.408531      7.327139
            33    1       1.896350      5.492946      7.856570
            34    1       4.892642      7.485661      7.042848
            35    1       2.193886      7.818063      9.580593
            36    0       2.196272      4.936976      9.682612
            37    1       5.211160      5.456664      9.548056
            38    0      -0.028090      7.704711      9.789423
            39    0       7.297234      2.713367      2.138384
            40    1       7.596538      0.576934      2.127490
            41    1       7.366563      2.449640      4.637694
            42    0       9.786241      2.499242      4.633844
            43    0       7.049704      2.609909      7.377943
            44    1       9.770500      2.525622      6.678246
            45    1       6.870162     -0.134634      7.168886
            46    1       7.800675      2.662526      9.970828
            47    1      10.304852     -0.294953      9.140568
            48    1      10.105187      4.887976      9.758586
            49    1       5.485325      0.708157      9.948689
            50    0       7.848165      7.194256      2.075799
            51    1       7.188361      4.721688      1.759731
            52    1       7.562786      9.341066      2.117220
            53    0       7.312221      4.949539      4.432564
            54    1       7.579991      7.296017      4.460999
            55    0       4.984182      7.361891      4.449579
            56    0       7.457954      9.721216      4.661535
            57    1       5.082331      7.242171      2.034985
            58    1       9.968484      4.998514      4.584637
            59    0       7.507591      7.803348      6.859125
            60    0       9.630362      4.880657      6.989045
            61    1       7.420555      7.767535      9.650323
            62    0       7.568961      9.962776      9.702973
            63    0       7.542984      5.305193      9.743317
            64    1       7.444387      4.984747      7.492908
            65    1       9.917876      7.756753      7.371425
 Feature   MV_grade	1.754408
 Feature   ind	138996
 Feature   selected_eqn_inds	0
END_CFG

BEGIN_CFG
 Size
    65
 Supercell
         9.967309      0.000000      0.000000
         0.000000      9.967309      0.000000
         0.000000      0.000000      9.967309
 AtomData:  id type       cartes_x      cartes_y      cartes_z
             1    0       2.384287      2.450905      2.082585
             2    0       4.633812      4.762471      2.250874
             3    0       0.112135      0.068065      2.296108
             4    1       0.141695      2.491240      2.236614
             5    1       4.391691      2.641010      2.022213
             6    0       4.695759      0.084593      1.893553
             7    1       2.512827      2.478374      4.444504
             8    1       0.237341      0.130457      4.511963
             9    0       2.284928      2.476769      6.864002
            10    1       4.806722      2.520309      7.204593
            11    0       2.505819      0.473861      5.073976
            12    1       4.795646     -0.017505      5.102421
            13    1       2.742572      4.533492      6.875831
            14    0       4.637681      2.491870      9.578723
            15    0       2.375678      0.019949      9.352505
            16    1       2.246004      2.964312      9.623491
            17    1       0.359698      0.246565      9.604622
            18    1       2.153079      7.940672      0.160832
            19    1       0.477290      7.374558      2.357965
            20    1       2.528116      5.193195      2.205965
            21    1       4.569519      7.449807      2.318056
            22    1       2.661030      9.769764      2.708306
            23    0       2.393701      7.551016      2.559468
            24    0       0.006815      7.612192      4.446359
            25    0       2.383209      5.175352      4.693493
            26    0       2.483179      7.380722      6.963847
            27    1       2.384439      9.623930      7.146195
            28    1      -0.053473      7.228072      6.557736
            29    1       2.572730      7.297522      4.873112
            30    0       0.029104      7.673386      9.645008
            31    0       2.153839      5.134287      9.744020
            32    0       4.566646      7.406801      9.505661
            33    1       4.861854      5.076812      9.499262
            34    1       4.603002      9.612128      9.824676
            35    1       4.865168      6.972816      7.482073
            36    0       7.514833      2.470643      1.685784
            37    0       9.508113      2.666730     -0.053047
            38    1       6.086148      1.284463      3.326560
            39    0       9.605574      2.850870      4.617588
            40    0       7.588604     -0.069590      4.517097
            41    0       5.050996      2.863697      4.577739
            42    1       7.407592      2.632796      4.424893
            43    0       4.892645      4.703980      7.208607
            44    0       9.842594      0.061726      7.103422
            45    1       9.374630      2.572466      7.329248
            46    0       7.253231      2.615879      6.891113
            47    0       4.998372      0.234333      7.479484
            48    0       7.593571      0.019176      9.639357
            49    1       7.272024      2.873651      9.344159
            50    1       7.571818      0.303253      7.438659
            51    1       7.064532      5.019569      1.897451
            52    0       9.718237      5.065696      1.911307
            53    0       7.307979      7.715909      1.899046
            54    1       7.828852      9.782125      1.823239
            55    1       7.789314      7.108803      4.087295
            56    1       9.593170      5.153568      4.823149
            57    0       7.142011      5.107861      4.330908
            58    1       4.892242      5.287263      4.773373
            59    0       5.172976      7.913716      4.756838
            60    0       7.430269      7.667002      6.844815
            61    0       9.663266      5.107503      6.892267
            62    1       6.891941      5.164779      7.071627
            63    1       9.644143      5.246840      9.401151
            64    0       7.258549      5.257321      9.657439
            65    1       7.352613      7.908510      9.420457
 Feature   MV_grade	1.456775
 Feature   ind	147241
 Feature   selected_eqn_inds	0
END_CFG

BEGIN_CFG
 Size
    65
 Supercell
        10.071506      0.000000      0.000000
         0.000000     10.071506      0.000000
         0.000000      0.000000     10.071506
 AtomData:  id type       cartes_x      cartes_y      cartes_z
             1    0       2.369933      2.736803      2.072028
             2    1       2.319419      0.442164      1.803299
             3    1       4.971376     -0.315860      0.336736
             4    1       2.394834      2.489047      4.802766
             5    0       2.108736      0.062098      4.360633
             6    1       4.826850      0.385788      4.545162
             7    0       2.694794      2.176393      7.040616
             8    0       0.126362      3.003497      5.106089
             9    0       2.530851      0.128027      9.456674
            10    1       3.140752      2.707570      9.425217
            11    1      -0.132756      2.722515      7.540928
            12    0       2.696057      7.370746      2.241309
            13    1       2.431251      5.114602      2.419189
            14    1      -0.004655      7.610856      2.033250
            15    0       4.790247      4.925758      1.958630
            16    0       0.176983      5.414387      2.147460
            17    1       3.022173      7.193886      4.363442
            18    1      -0.094255      9.753251      4.238213
            19    1       4.761901      5.079627      5.010046
            20    0       2.332089      7.379048      7.153703
            21    1       3.010257      4.944572      7.078067
            22    1       4.666657      7.385959      7.420959
            23    1       1.882651      9.777853      6.545310
            24    0       4.093038      9.828761      6.732090
            25    0       2.658984      5.083567      5.016335
            26    0       0.010038      7.964699      9.651227
            27    0       2.333611      5.478243      9.489613
            28    1       2.424885      7.681888      9.539506
            29    0       9.830489      0.359618      2.158174
            30    1       9.291823      2.651924      1.905987
            31    0       7.253495      2.582804      1.976762
            32    1       7.235656     -0.176058      1.791176
            33    1       5.037041      2.172654      2.128845
            34    1       9.787260      0.127737      0.111817
            35    0       7.601185      0.215169      4.247691
            36    0       5.297837      2.489125      4.284334
            37    0       7.323275      2.517938      7.304949
            38    1       5.037635      2.288894      7.066332
            39    0       4.977640      4.733360      7.170823
            40    1       7.895544      2.749992      4.844953
            41    0       7.362220      0.176625      9.756564
            42    0       5.190625      2.774204      9.418106
            43    0       9.855293      2.769509      9.655955
            44    1       7.366911      0.431400      7.767110
            45    1       7.480358      2.489609      9.676175
            46    0       7.429987      7.744793      2.161175
            47    1       7.893673      5.610811      2.337170
            48    0       4.939177      9.837824      2.333050
            49    0       7.490301      5.051108     -0.140296
            50    1       7.522886      7.856178      0.091478
            51    1       7.730400      7.863116      4.691768
            52    0       5.257815      7.570567      4.763854
            53    0       7.228010      5.098468      4.633478
            54    1      10.148104      5.111717      4.878907
            55    0       9.827255      7.402096      4.357930
            56    1       4.766820      7.541202      2.525689
            57    1       5.983138      9.135361      6.354353
            58    0       6.804274      7.230994      6.403160
            59    0       9.710147      5.396450      7.112826
            60    1       9.386818      7.475682      7.013714
            61    0       9.852680      9.819783      7.275912
            62    1       7.476353      5.313492      7.149383
            63    1       9.886514      5.418331      9.743285
            64    0       5.368916      7.536190      9.562176
            65    1       5.420345      5.236078      9.360640
 Feature   MV_grade	1.510321
 Feature   ind	281693
 Feature   selected_eqn_inds	0
END_CFG

BEGIN_CFG
 Size
    65
 Supercell
        10.035910      0.000000      0.000000
         0.000000     10.035910      0.000000
         0.000000      0.000000     10.035910
 AtomData:  id type       cartes_x      cartes_y      cartes_z
             1    1       2.030461     -0.044751      2.085666
             2    1      -0.126525      2.722711      2.305457
             3    0       4.606442      0.505826      1.887703
             4    1       2.276043      2.157528      4.669845
             5    0       2.272621     -0.011920      4.533762
             6    0       2.341655      2.695178      2.336914
             7    1       4.815277      0.085852      3.827958
             8    1       4.756694      2.570775      2.275150
             9    0       2.468647      2.368026      7.074572
            10    0       0.083789      0.090886      6.992045
            11    1       2.082359      4.765853      6.902305
            12    1       2.345409     -0.224546      7.306780
            13    1      -0.214364     -0.072206      9.953084
            14    0      -0.123117      2.657575      9.470470
            15    1       2.622350      2.503031      9.086975
            16    0       2.298319      7.360214      2.092206
            17    0       4.169817      5.396991      1.860530
            18    1       1.999320      5.052260      2.029265
            19    1       4.451888      7.715097      1.744912
            20    0       4.772110      7.584065      4.474645
            21    0       2.179980      4.910520      4.533737
            22    1       2.140463      7.352642      4.591533
            23    1      -0.127888      4.979718      4.445952
            24    0       2.611607      7.658166      6.978684
            25    0      -0.011992      4.957131      7.313159
            26    1       0.304494      7.274141      7.064143
            27    0       2.437840      4.877432      9.784431
            28    1       2.267327      7.534572      9.319499
            29    0       2.454927      9.915566      9.562259
            30    0       0.072050      7.725543      9.557507
            31    0       4.719937      5.215905      7.578405
            32    0       7.541544      2.511375      2.385571
            33    1       7.286226     -0.060184      2.260226
            34    0       9.896169      2.675169      4.854833
            35    0       5.038835      2.583046      4.458204
            36    1       7.275767      2.888806      4.524956
            37    0       7.338873      0.379339      4.598275
            38    1       9.551767      0.334952      4.714671
            39    1       4.896996      5.196305      4.612980
            40    0       7.277094      2.825318      6.943757
            41    1       7.609467      0.262659      7.064781
            42    1       9.791044      2.385969      6.731209
            43    1       4.938624      0.096802      9.446457
            44    0       7.861077      0.306381      9.747872
            45    1       7.438142      2.868829      9.792019
            46    0       5.043022      2.608819      9.745766
            47    1       5.131475      2.537600      7.289540
            48    0       7.162113      7.604606      1.860509
            49    1       9.933514      7.488140      2.246101
            50    0       9.627545      4.865036      2.011073
            51    0       9.942497      9.638911      2.330637