BEGIN_CFG
 Size
    65
 Supercell
        10.056800      0.000000      0.000000
         0.000000     10.056800      0.000000
         0.000000      0.000000     10.056800
 AtomData:  id type       cartes_x      cartes_y      cartes_z           fx          fy          fz
             1    0       2.021530      3.033390      2.355190     1.173926   -2.442171   -0.290559
             2    0       2.236620      0.470930      9.985310     1.913085    0.292189   -1.458748
             3    0       2.607130      0.096550      4.551310    -2.449234    0.618448    0.798858
             4    0       2.350590      2.785350      7.327190     0.591727    0.687742   -0.393530
             5    0      10.042840      0.397870      7.466440     0.182813   -0.855778   -1.805121
             6    0       9.997450      2.834840      9.816800     0.874146   -2.503036   -3.385533
             7    0       2.152010      8.094250      2.290080     0.434587   -1.963635    0.061327
             8    0       2.102670      5.627070      9.939060   -13.523777   -7.234052   -5.622887
             9    0       2.456360      5.566980      4.500370     0.400308   -0.043922    1.567236
            10    0       4.887940      5.079280      7.276910    -0.510965    1.683672   -0.930975
            11    0       0.126080      5.596340      7.246320    -0.117296   -2.027012   -0.994746
            12    0       2.481320      8.031650      6.996410     1.055981   -0.837178    1.840630
            13    0       4.657980      8.247780      9.809770     0.766440   -0.974877   -1.192485
            14    0       0.069320      7.996500      9.779280    -1.872231   -0.888162    0.737085
            15    0       4.795770      0.576750      2.099650     0.697924   -1.409630    0.192385
            16    0       9.690460      0.381320      2.220890     1.346116   -1.994683    1.408121
            17    0       7.560660      2.641790      2.470040    -1.902553    2.235299   -1.230389
            18    0       4.868070      2.581560      4.730790    -3.262267    3.297740    0.174145
            19    0       7.555920      0.439050      5.024690    -0.183836   -0.447196   -0.783744
            20    0       9.840590      2.812630      4.869610     0.253824    2.434219    0.159545
            21    0       7.750840      2.772190      7.121470    -2.346092   -1.241899    0.401983
            22    0       5.099390      0.067830      7.253790    -0.668835    0.509474   -0.939020
            23    0       5.073490      2.634190      9.783520    -0.216238    1.865050    0.136673
            24    0       7.428660      0.293840      9.773990     0.366901    1.078859   -0.217376
            25    0       4.931980      5.542260      1.907910     1.108219   -1.800203    1.934002
            26    0       9.443120      5.455330      2.511660     1.491740   -0.271229   -0.035383
            27    0       5.457340      7.826220      4.665280    -2.401903    0.525064    0.596280
            28    0       7.372520      7.935010      2.444290     0.133335    0.948553   -1.206616
            29    0       7.638930      7.649260      7.176330    -1.178276    0.842995    2.528114
            30    0       7.034650      5.535810      4.965690     2.670422   -0.549782   -2.362872
            31    0       9.909780      7.792300      5.102110     1.534808    0.285904   -0.860341
            32    0       7.707290      5.044770      9.307200    -2.172657    0.774235    1.873425
            33    1       2.239320      0.201920      2.166020    -0.283529    1.633103   -0.041410
            34    1       4.719650      0.456110      4.556720     2.044057   -1.646767    0.211070
            35    1       2.364390      0.578310      6.699570     0.516486   -0.250649    1.505062
            36    1       1.909200      3.663890      5.065580     0.346930   -2.204377    0.037416
            37    1       0.030760      0.813640      5.037660    -0.357101   -2.624655   -0.418256
            38    1       2.438100      2.969150      0.086400    -0.118076   -0.163129   -0.561360
            39    1       4.746150      0.578490      9.508400     0.435882   -1.445902    0.522752
            40    1       0.055520      0.228420      9.841950    -2.028462    0.562695    0.394734
            41    1       2.185860      5.045420      2.209480    -0.154531    1.826014    0.146659
            42    1       3.525540      6.260990      0.385600    13.206467    6.131762    4.043623
            43    1       2.482050      7.801630      4.697550     0.235038    0.374139   -0.467041
            44    1       9.864720      8.013840      3.016400    -0.062958   -0.382896   -1.903412
            45    1       2.722040      5.555570      7.215030    -1.078329    0.182625    0.100197
            46    1       0.157670      7.877440      7.609730    -0.854048    0.739339   -1.215882
            47    1       2.122210      8.054440      9.405070     1.492298    1.068695    0.779160
            48    1       7.257440      0.445270      2.360760     0.191645   -0.787936   -0.251932
            49    1       5.237340      2.858260      2.429480    -0.530409   -0.228711   -0.908908
            50    1       9.730090      2.497310      1.677270     0.250370    1.396348    3.794459
            51    1       6.817330      2.597700      4.791050     4.036265    1.413847   -0.671546
            52    1       7.478660      9.935360      7.312660     0.375703    1.068545    0.459743
            53    1       7.649290      2.627220      9.662430    -0.660465    0.694747    0.143955
            54    1       5.306300      4.790410      9.301320     0.871181   -0.275103    1.252655
            55    1       5.205860      2.607540      6.885270    -0.972536   -0.099489    2.164422
            56    1      10.016800      2.765090      7.421460     0.721420    0.474494   -1.068657
            57    1       4.916640      7.828120      1.859660     0.557744    0.776912    1.336904
            58    1       7.319660      5.377650      2.341440    -0.747503    0.189584   -0.181279
            59    1       7.821430      8.353960      4.963000    -1.580223   -1.984001   -0.557529
            60    1       9.608950      5.348390      4.827200     0.466022    0.721154   -0.440510
            61    1       7.451570      5.019460      7.029460     0.425351    0.845079    1.124693
            62    1       4.925790      5.374070      4.824990    -1.568023   -0.306021   -0.768481
            63    1       5.111270      7.549820      7.231000    -0.073785    0.684193   -0.149684
            64    1       7.368810      8.379470     10.024200    -0.100745   -1.953345    0.106068
            65    1       9.863770      4.862630      9.501940     0.807727    2.974709    0.782834
 Energy
       -775.118538200000
 PlusStress:  xx          yy          zz          yz          xz          xy
         5.05933     2.55811   -10.57940     2.69230     8.03875     6.72768
 Feature   EFS_by	VASP
END_CFG

BEGIN_CFG
 Size
    65
 Supercell
        10.023000      0.000000      0.000000
         0.000000     10.023000      0.000000
         0.000000      0.000000     10.023000
 AtomData:  id type       cartes_x      cartes_y      cartes_z           fx          fy          fz
             1    0       2.544510      0.864490     10.012330    -1.218147   -2.054770    0.720789
             2    0       2.438990      2.637720      2.146830     0.453042    0.201863    1.441259
             3    0       2.276230      0.001620      4.640260    -0.384042    4.687022    1.488260
             4    0       2.493350      2.578670      7.147290    -1.109161    0.550897   -3.763530
             5    0       4.784580      0.208540      7.289730     0.708958    0.243863    0.492598
             6    0       4.791490      2.866170      9.861470     0.704156    0.548352    0.236256
             7    0       0.055460      3.377160      9.522330     0.024682   -0.430009   -0.245207
             8    0       2.283140      7.801320      2.289700    -0.119478   -2.203785    0.235468
             9    0       0.110620      8.326500      0.096160     0.508876   -0.486981   -1.096855
            10    0       2.040660      4.954820      0.006460     0.026693    2.524512   -1.787653
            11    0       4.812410      5.613580      2.197090    -1.554537   -1.168880   -0.176143
            12    0       2.512860      5.440320      4.789940    -0.908947   -0.683324   -1.353851
            13    0       0.023030      5.164460      7.110700    -1.190336    1.989456    0.395087
            14    0       4.382970      5.074110      7.119120     2.964725    1.808463    1.363574
            15    0       4.733160      8.153010      4.999690     1.430817   -0.395307   -1.624190
            16    0       2.306240      7.652690      7.231050    -1.209771    1.934667    1.025658
            17    0       7.962190      2.948690      1.715380    -2.626903   -0.093371    1.476845
            18    0       4.928070      0.265200      1.936270     0.543534    0.269073    1.078201
            19    0       9.760000      0.300560      2.360950     1.763673   -0.207966   -1.494346
            20    0       7.515760      0.253830      4.379430    -3.146009    0.917388    3.946158
            21    0       9.696490      3.005800      4.781560     0.069754   -0.723745   -0.226236
            22    0       7.256800      3.069760      7.398180     0.097292    0.202236    0.033218
            23    0       5.088840      2.545140      4.891050    -1.303056   -0.044690   -2.342956
            24    0       7.542850      0.410290      9.365480    -0.814754   -0.831994    0.998112
            25    0       9.738850      0.511040      7.420470    -0.069050   -0.585781   -1.760529
            26    0       7.228660      7.953240      2.252160     0.047109   -0.203527    0.003980
            27    0       8.217930      5.808810      0.168490    -0.188557   -2.224380   -1.093341
            28    0       6.753970      5.153380      4.681560     1.966762    0.865422   -0.141224
            29    0       9.564400      7.924670      4.842850     1.254999   -1.619125   -0.957271
            30    0       9.570870      4.982000      2.413160    -0.343299    2.290771    0.139397
            31    0       7.397190      7.726070      7.403920    -0.144033    0.656143    0.033843
            32    0       4.975410      7.496250      9.639510    -0.874933   -0.351297    0.355072
            33    1       4.620490      0.432590      4.223020     0.720959    0.119731    0.698778
            34    1       0.370430      2.903060      2.817450    -0.124246   -1.397214   -1.436265
            35    1       2.411400      0.359450      6.667500     0.882573   -0.385540   -0.711369
            36    1       2.473640      2.750690      5.074960     0.031913    0.083003   -1.576131
            37    1       2.402170      2.902290      9.051590    -0.056044    0.376260    3.060230
            38    1       2.208570      7.408510      0.230580     1.124398    0.112926   -0.827487
            39    1       4.594160      7.970040      2.287540     0.712882   -0.176764   -0.290125
            40    1       2.248090      9.967420      2.540250     0.443763    1.453423   -1.717645
            41    1       2.414510      5.129430      2.110740    -0.333209    0.188588    1.661175
            42    1       4.784270      6.039610      4.817620    -0.533340   -1.109028   -0.519498
            43    1       2.254090      7.898400      4.657850    -0.336709   -1.925736    0.676898
            44    1       2.276750      5.143220      7.185370    -0.532143    0.146172    0.106713
            45    1       1.292980      9.822410      8.484690     0.520761   -1.539318    2.965259
            46    1       0.223430      6.194330      9.177880    -0.255518   -0.141243   -0.675196
            47    1       4.636070      5.197790      9.609690    -0.672851   -0.358149    0.282733
            48    1       4.355000      9.438480      9.494730     0.258741    2.077042   -0.015870
            49    1       7.532150      0.463490      2.253110    -0.801828   -0.125454   -2.224940
            50    1       5.584240      2.619420      2.279120    -1.134514   -0.127186   -0.557290
            51    1       7.253130      2.986400      5.032880     0.793753   -0.893786   -0.101332
            52    1       4.853250      2.809050      7.324340     0.397507   -0.610273    0.165206
            53    1       9.600520      0.573490      4.695580     1.688741   -0.411822    0.714513
            54    1       9.990380      2.827060      6.801720    -0.152464   -0.234330    2.544117
            55    1       7.091860      0.149070      6.875060     0.583883    1.208124    1.562785
            56    1       7.054080      2.595080      9.724630    -0.276698    0.724988   -0.290704
            57    1       9.487360      1.405350      9.822760     0.326806   -1.094519    1.033780
            58    1       6.759740      5.241670      2.016560     3.032505    0.327328    1.211628
            59    1       9.586100      5.555340      4.707840     0.247857   -0.894040    0.170423
            60    1       9.592390      7.655320      2.748410     0.413341    0.797841   -1.689820
            61    1       9.829990      8.208630      6.850020    -0.519782   -0.723898    0.612690
            62    1       7.148630      8.037260      5.386020     0.138626   -1.223467   -2.843566
            63    1       4.912190      7.899070      7.231790    -0.242140   -0.969362    0.697001
            64    1       7.790850      7.770710      9.724340    -1.233582    1.581015    0.258834
            65    1       7.851990      5.479870      7.881510    -0.474003   -0.236510   -0.345968
 Energy
       -771.379262730000
 PlusStress:  xx          yy          zz          yz          xz          xy
       -16.39631   -16.08936     3.56005    -7.50274     2.63083    -3.81602
 Feature   EFS_by	VASP
END_CFG

BEGIN_CFG
 Size
    65
 Supercell
         9.990450      0.000000      0.000000
         0.000000      9.990450      0.000000
         0.000000      0.000000      9.990450
 AtomData:  id type       cartes_x      cartes_y      cartes_z           fx          fy          fz
             1    0       2.407970      2.842320      1.878550    -1.971622    1.000375    1.158271
             2    0       4.498580      0.758180      2.280380    -0.102349   -1.557894   -1.638669
             3    0       2.081070      0.501400      4.745070     0.320933   -0.276732   -1.694823
             4    0       4.712790      2.930440      4.763460    -0.081679    0.711551   -1.921905
             5    0       2.648470      2.992350      7.130140    -4.316649    0.299613    0.566639
             6    0       4.617830      0.603150      6.938630    -2.885094   -0.012880    1.721908
             7    0       9.867900      2.707220      4.868670    -0.945683    1.410423   -0.858368
             8    0       2.172950      0.081100      9.351830     0.226074    2.508835    1.313885
             9    0       2.121880      7.840830      2.266990    -0.365538    1.042718   -0.486042
            10    0       4.782180      7.918610      4.526280    -2.217911    0.955484    0.070245
            11    0       2.152080      5.671930      4.803320     0.643336   -2.868584    0.532991
            12    0       4.846310      5.491410      2.380470    -0.214939    0.592315   -0.583371
            13    0       2.425430      7.899230      6.986820    -2.753559   -0.815898    1.042365
            14    0       2.454610      5.551180      9.527070    -1.389495    0.182178    2.296694
            15    0       4.826240      8.043240      9.728090    -2.428319    0.152145    0.618979
            16    0       7.116470      2.977070      2.161410     2.334032    2.021032   -0.377572
            17    0       7.035230      0.489670      4.516470     0.258292   -0.216065    1.559735
            18    0       9.379880      0.477120      2.382260     2.135420    0.889841   -2.256634
            19    0       7.255880      2.896880      7.050700    -1.245629    0.209516   -0.081878
            20    0       7.316450      0.467100      9.398160    -1.491420    0.947270    2.081557
            21    0       9.495620      3.155920      9.288680     3.198513    0.816143    5.586629
            22    0       4.949220      3.133880      9.466670    -0.775689   -1.656876    1.095258
            23    0       9.510030      0.397440      7.472880     0.327419   -0.586700   -1.587282
            24    0       9.605260      5.732850      2.081720     1.492417   -2.491866    0.795614
            25    0       7.386020      8.223880      2.229170    -3.090709   -0.246988    1.324700
            26    0       6.795140      7.986970      7.348830     1.288380   -0.689957   -0.056475
            27    0       9.644810      5.215340      6.966620     0.234820   -0.136726    3.013188
            28    0       9.732200      8.130450      5.146310    -0.926566   -0.298106   -1.057206
            29    0       4.901590      5.725420      7.056750    -2.221627   -1.193610    1.688952
            30    0       7.303680      5.780210      5.026880     0.616931   -1.586824   -1.694201
            31    0       9.614420      8.076800      9.333870    -0.721086   -1.204698   -0.003381
            32    0       7.294800      5.663630      9.801620    -0.681855   -2.357125   -0.930686
            33    1       1.553700      0.641630      2.145060     1.342829   -0.500363    0.421568
            34    1       4.593750      0.411820      4.663660    -0.321823    0.134645   -0.960114
            35    1       2.278840      2.774210      4.571910    -0.135240    0.468104    0.297251
            36    1       1.811820      0.172380      6.853660     0.886277    0.702702    1.640442
            37    1       4.714750      3.044820      7.033100     2.646704    0.984818    0.808572
            38    1       2.240630      3.259510      9.486270     0.687279   -0.392123    0.160747
            39    1       4.534720      0.359240      9.555760     0.414113    0.259757    0.074410
            40    1       4.458450      8.106290      2.287810     0.509873    0.017429   -0.755397
            41    1       2.255910      7.901560      4.671320    -0.096404    1.123980   -0.540616
            42    1       2.245540      5.257490      2.795250     0.203761    0.626103   -2.058804
            43    1       4.477420      8.328220      7.119210     1.808961   -0.991351   -0.208851
            44    1       1.717070      7.908820      9.605420     2.297429   -0.165819   -0.001513
            45    1       9.910650      5.656410      9.766150    -0.760823    0.264622   -0.215976
            46    1       1.943350      5.492630      7.585910     0.611007   -0.580973   -2.607709
            47    1       9.605020      3.280270      1.744070    -0.163680   -0.042446    0.672329
            48    1       6.765080      0.883920      2.078570     0.772514   -1.744346    0.125169
            49    1       4.927810      3.270160      2.127330    -1.313450   -1.172327    0.107683
            50    1       7.079150      2.707800      4.539000     0.584956    0.966114    0.208606
            51    1       9.466690      0.460340      4.754390     0.463337   -0.260635    0.654655
            52    1       6.520370      0.206770      7.281950     3.645103    0.730505   -0.888637
            53    1       9.741200      2.630800      7.335840     0.534324   -0.050383   -3.090535
            54    1       7.369250      3.040570      9.526920    -1.664996   -0.209781    0.441640
            55    1       9.842180      0.942300      9.761310    -0.975461   -1.226383   -0.923571
            56    1       9.494740      8.094200      1.481370     1.306554   -0.030130    1.855880
            57    1       4.878810      5.231220      9.869300     0.147230    1.914415   -0.278590
            58    1       7.347120      5.748810      2.142990    -0.379642   -0.005928    0.901246
            59    1       6.956270      7.795700      0.107980     1.050065    1.630511   -1.246513
            60    1       9.703420      5.306980      4.864690     0.478179    0.731959   -1.497374
            61    1       5.162010      5.283560      4.859020    -1.586355    0.588032   -1.106844
            62    1       9.647860      8.068470      3.002960     0.374651    0.094300   -1.742088
            63    1       9.640570      7.386760      7.183870    -0.132210    0.894300    0.275260
            64    1       6.812870      8.150380      5.058090     2.629696   -0.275938   -0.685532
            65    1       6.926230      5.373270      7.536380     1.886093   -0.025276   -1.075907
 Energy
       -778.991575180000
 PlusStress:  xx          yy          zz          yz          xz          xy
        -5.80377   -16.93853    -8.98027    -0.19956     4.95640    -1.29821
 Feature   EFS_by	VASP
END_CFG

BEGIN_CFG
 Size
    65
 Supercell
        10.038800      0.000000      0.000000
         0.000000     10.038800      0.000000
         0.000000      0.000000     10.038800
 AtomData:  id type       cartes_x      cartes_y      cartes_z           fx          fy          fz
             1    0       2.409430      2.620180      1.616770     0.030093    1.229452    4.569135
             2    0       2.552450      0.337730      9.946280    -1.166499    0.578915   -1.392108
             3    0       4.708260      2.547250      4.731610     0.382326    4.867861    0.735903
             4    0       4.770940      0.261690      7.212510    -1.988127    0.521330    1.307619
             5    0       2.385460     10.003940      4.897000    -1.639665    1.122365   -0.311299
             6    0       4.802190      3.121460      9.552040     0.478747    1.662402    1.033483
             7    0       1.653800      2.910240      7.456500     1.353618   -1.180174   -0.704574
             8    0       2.440040      8.248210      1.973550     0.106262   -0.568843    0.651491
             9    0       4.836590      5.687470      2.123300    -0.283492   -1.207855   -0.230365
            10    0       4.743170      7.916050      4.584270    -1.353035   -0.149087    1.243690
            11    0       0.104590      7.632440      4.691030    -1.232629    0.734310   -0.072336
            12    0       2.394780      4.952540      4.967570    -1.313432    2.800583   -2.074237
            13    0       2.191750      5.414550      9.640680    -0.918688    0.690875    0.532490
            14    0       4.487580      5.461100      7.600150     0.594472   -0.445845   -1.298321
            15    0       9.956460      8.404520      9.325140    -1.436463   -1.629618    1.765575
            16    0       2.086640      7.654870      7.434770    -0.109593    1.504804   -2.453888
            17    0       9.619470      3.232470      9.975890     1.387881   -1.112810   -0.796242
            18    0       7.221320      3.075620      2.192890    -2.020652   -1.061996    0.547990
            19    0       9.729340      0.202300      2.089160     2.730287    1.090726    0.899447
            20    0       4.942400      0.890410      2.429330    -0.177558   -2.708043   -1.440271
            21    0       7.194900      0.293730      4.640040     0.843959   -0.800153    0.407135
            22    0       9.416860      0.086000      6.887300     1.642238   -0.139879    1.226915
            23    0       7.102430      2.654500      7.264600     0.005224    3.390503    0.095100
            24    0       9.712940      2.340390      5.142200     0.024914    2.301922   -1.032610
            25    0       7.086680      0.758020      9.760170     1.675979   -0.311802    1.022622
            26    0       7.260200      7.745730      2.053080     0.370909    1.557538    0.845696
            27    0       7.499970      5.827220      9.990190    -0.407387   -0.877383   -0.749974
            28    0       9.576930      5.152050      2.635060     4.243553    5.355075   -1.257746
            29    0       6.855890      5.526220      4.757660    -0.193584   -0.452158    2.621636
            30    0       9.113300      5.360530      6.882260     1.991454    0.974610    1.916375
            31    0       6.486680      7.829990      7.496840     3.191903    1.998113   -1.901622
            32    0       4.904030      8.265380      9.881100    -2.994948   -0.321094    0.446047
            33    1       2.125920      4.700360      1.600330     1.450005    1.744902    0.376432
            34    1       4.838220      3.034590      2.145730    -0.302312    1.358340   -0.362283
            35    1       0.453700      3.249430      2.622860     3.137685   -1.906300   -0.860915
            36    1       2.422280      3.005210      4.514480     0.564588   -2.282897    0.901270
            37    1       2.441610      0.458990      2.587650     0.167249   -0.898328   -0.908010
            38    1       4.610170      3.117370      7.445160    -0.083833   -1.165827   -1.502877
            39    1       4.739740      0.531480      4.874100     0.121396   -3.354351   -0.301373
            40    1       2.324020      0.035260      7.337820    -0.028925    0.617123   -0.014670
            41    1       4.778160      1.039700      9.670960     0.138925   -2.549218    0.314660
            42    1       2.359160      2.936960      9.585560    -0.322540   -0.254519   -1.702108
            43    1      10.025030      5.734390     10.022530    -0.827037   -0.401377   -0.794925
            44    1       1.746940      5.225960      6.947450     0.286206   -0.180510    2.235241
            45    1       2.281710      7.452740      5.060890    -0.081462    0.532970   -0.598673
            46    1       4.634920      5.231600      5.008440     0.050094    0.150383   -0.446375
            47    1       4.183560      7.995670      7.355180     1.425976   -0.767632   -0.321678
            48    1       2.341180      7.813100      9.480670    -0.201626    1.270368    2.862064
            49    1       7.764580      0.568260      2.178020    -3.104854    0.009990    0.248494
            50    1       9.847290      0.759740      9.916470    -0.454815   -0.720759   -0.100818
            51    1       9.790380      0.126000      4.583670     0.110363   -0.938194   -0.282468
            52    1       9.233560      3.128250      2.834170    -3.072347   -4.571921    0.313626
            53    1       9.669230      4.799590      4.900780     0.267363    0.874812   -0.451830
            54    1       7.409650      2.655640      5.040400    -1.114245    0.041633   -0.486866
            55    1       7.604750      3.473860      9.691880    -2.860328   -0.450629    1.029374
            56    1       9.260950      3.052240      7.686870     1.624881   -0.220960   -1.461242
            57    1       7.271790      0.560670      7.549730    -0.519674   -1.624835   -1.393415
            58    1       9.300530      8.169750      1.613360     0.966361   -0.050188    0.346568
            59    1       7.484250      5.391890      2.729000    -1.683833    0.331276   -2.044173
            60    1       5.190360      8.616190      2.526240    -0.684766   -0.899863   -1.162498
            61    1       6.923210      8.050740      4.979780     0.116180   -0.471429   -0.789679
            62    1       7.034720      8.519290      9.606630     1.453072   -0.605919    1.539975
            63    1       4.922520      5.940560      9.755260    -0.303069   -0.771626    0.843273
            64    1       8.949210      7.878900      7.432630     0.620477   -0.199691   -1.157096
            65    1       6.974310      5.722930      7.446260    -0.673220   -1.059468   -0.019764
 Energy
       -768.767621570000
 PlusStress:  xx          yy          zz          yz          xz          xy
         2.91956    -8.27648   -11.31791    -1.02538    -4.70837    -3.54879
 Feature   EFS_by	VASP
END_CFG

BEGIN_CFG
 Size
    65
 Supercell
        10.227600      0.000000      0.000000
         0.000000     10.227600      0.000000
         0.000000      0.000000     10.227600
 AtomData:  id type       cartes_x      cartes_y      cartes_z           fx          fy          fz
             1    0       4.720690      0.576600      1.839200    -0.724633   -2.242800   -0.480948
             2    0      10.207520      0.358420      2.020250    -0.981526   -0.376374   -0.057043
             3    0       2.299580      3.221870      2.269300    -2.787729    1.470650    2.237570
             4    0       2.105330      0.147480      4.563370     2.768798   -0.038896    0.553792
             5    0       4.788360      2.604530      4.853870    -2.065386   -1.223946   -1.959437
             6    0      10.039390      0.089510      7.163750     0.129257   -0.959429    0.981149
             7    0       2.134530      2.809800      7.252840     0.647406    0.034492   -0.126049
             8    0       2.289490      0.415370      9.747750    -0.456914    0.119011    1.045368
             9    0       4.177970      3.318690      9.592060     0.896359    0.112566   -2.166984
            10    0       2.092140      7.935970      1.849310     1.032761   -0.640743    3.869950
            11    0       2.664040      5.358970      4.763230    -0.765473    0.419805   -2.021446
            12    0       1.915260      7.953020      7.387940    -0.824505    1.877267   -0.327504
            13    0       4.691070      8.198390      4.909670    -0.591599   -0.240045   -1.329316
            14    0       4.560310      9.751930      7.238910    -0.552277   -0.427257    1.462773
            15    0       4.090390      5.076310      7.352870     1.377102   -2.127325    1.823679
            16    0       4.056000      8.010060      9.591410     5.288505   -1.078416   -0.008162
            17    0       1.817600      5.951950      9.705010    -0.109324   -1.338528    1.241583