BEGIN_CFG
 Size
    65
 Supercell
         9.950770      0.000000      0.000000
         0.000000      9.950770      0.000000
         0.000000      0.000000      9.950770
 AtomData:  id type       cartes_x      cartes_y      cartes_z           fx          fy          fz
             1    0       2.248760      2.791020      1.928440    -0.015224   -0.167737    1.403487
             2    0       4.719130      0.397910      2.190140    -1.039452   -1.219990   -0.140559
             3    0       2.230640      0.020730      4.647900     0.029181    1.229920   -0.213819
             4    0       2.540930      2.646770      7.044770    -1.540647   -0.552351    0.835192
             5    0       4.553780      2.496370      9.701360     2.658744    1.448706    0.098185
             6    0       2.250730      0.471680      9.406080     0.447606   -1.695713    1.320389
             7    0       2.501690      7.605930      2.384100    -1.111668    1.164843   -1.881452
             8    0       0.028930      5.323410      1.959780    -0.239005   -0.300835    0.568695
             9    0       2.266090      5.090650      4.674420    -0.067637    1.077977   -0.433948
            10    0       4.714970      7.654020      4.739530     0.290305   -0.163313   -0.715915
            11    0       0.026190      5.209860      7.169810    -2.007252   -0.462883    0.046816
            12    0       2.478160      7.664100      7.135760    -2.727401   -1.144607   -0.164409
            13    0       9.926680      7.686730      9.497910     2.471889   -0.521476    2.279756
            14    0       2.558050      5.172410      9.575120    -1.737808    1.138931   -0.099094
            15    0       9.768210      0.077030      2.002290     0.445598    1.292774   -0.158373
            16    0       7.549200      2.758030      2.231940    -1.837618    0.756441   -0.206307
            17    0       9.785910      2.593250      4.582110     0.035967   -0.103082    0.191420
            18    0       7.165060      9.893580      4.541740     0.110514    1.164382   -0.455351
            19    0       4.900730      2.581850      4.715280    -0.362945    2.147382   -0.329905
            20    0       7.436750      2.908420      7.150760     0.575075   -1.857540   -0.170259
            21    0       4.956500      0.153880      7.045520    -1.215990    0.170889    0.837675
            22    0       9.587470      0.050800      7.004030     0.287029    1.310895   -1.140200
            23    0       7.079650      0.277140      9.835980     1.502271   -0.431916   -2.065507
            24    0       9.655680      2.953390      9.484990     0.470692    4.809116   -1.045688
            25    0       7.258730      7.717900      2.035080    -0.198736    0.858355    0.627176
            26    0       4.918750      5.272870      2.212370    -0.667624   -1.257267    0.198970
            27    0       7.474280      5.343460      4.302660    -1.639361   -2.445019    1.049345
            28    0       9.599290      7.373600      4.523750     1.304188    3.939207    0.229812
            29    0       5.266440      5.078160      7.344310    -2.320383    0.218387   -1.325441
            30    0       4.940310      7.489040      9.650000    -0.595497    1.931054    0.036585
            31    0       7.301180      5.365280      9.606910     0.108824   -2.212832    0.866504
            32    0       7.433650      7.531990      7.395030    -1.542163    0.392164   -2.156679
            33    1       9.847380      2.781730      1.759130    -0.135269    0.289020    1.652225
            34    1       2.281710      0.370340      2.153600    -0.144821   -0.486232   -0.156594
            35    1       4.627950      2.721530      2.282610     0.803323    0.359816    0.112493
            36    1       2.490840      2.956600      4.849720    -0.427107   -1.802640   -1.226739
            37    1       0.026220      2.633890      6.983930    -0.228459    0.368402   -0.216715
            38    1       2.202460      2.948690      9.378470    -0.240290   -0.946050    0.904034
            39    1       4.796510      0.143520      9.523430    -0.273547   -0.148295    0.439094
            40    1       2.467020      5.242890      2.153910     0.114365   -0.185460   -0.068399
            41    1       0.215840      7.810570      2.090320    -1.378583   -0.780389   -0.112323
            42    1       4.344340      4.915710      4.742730     2.218748    0.967641   -0.136442
            43    1       2.024870      7.637420      4.654990     0.698746   -0.344610    0.335384
            44    1       4.671450      7.902420      2.422840     1.542084   -0.575579   -1.353331
            45    1       2.167580      4.918190      7.085340     1.577129    0.396791    0.096747
            46    1       1.901640      9.773070      7.236760     1.125017    1.586175   -0.784979
            47    1       4.525590      7.400570      7.024730     2.584702    0.499848    1.099697
            48    1       0.094300      5.649390      9.461900    -0.558407   -2.731959    0.746463
            49    1       4.686910      4.944640      9.686420     1.924821    0.346363    0.329689
            50    1       2.743180      7.896080      9.396100    -0.774140   -0.558613    0.650255
            51    1       7.042260      0.355810      2.061450     0.985742   -0.263389    0.751646
            52    1       7.521510      2.392540      4.894140    -0.470945    1.083587   -1.107555
            53    1       4.854020      0.360860      4.597450    -0.920151   -1.369688   -0.073408
            54    1       9.187020      0.154940      4.149700     2.878315   -0.108448    1.184688
            55    1       7.030530      0.383220      6.698060     1.228248   -0.694032    1.949014
            56    1       7.188620      2.503460      9.749640     0.033321    0.909089    0.323472
            57    1       9.618380      1.082280      9.718200     0.369142   -5.507637   -0.960197
            58    1       5.349940      2.664330      7.501320    -2.348297   -0.615209   -1.221840
            59    1       7.470090      5.412820      2.089820    -0.188374   -1.018036   -1.378169
            60    1       7.090260      7.446530      4.483690    -0.196697    1.550560    0.475726
            61    1       7.325040      5.306750      6.419920     0.080892   -0.338116    2.319300
            62    1       9.762160      7.707070      7.250850     0.296917   -0.661628   -1.270505
            63    1       9.598690      5.355450      5.047060     1.930010   -2.437703   -1.624142
            64    1       9.631810      9.662800      9.210920     0.090679    2.091745    1.305373
            65    1       7.774160      7.563010      9.784840    -2.068587    0.609817   -0.871061
 Energy
       -782.487028630000
 PlusStress:  xx          yy          zz          yz          xz          xy
       -11.06941     8.08901    -8.56886    -4.11201    -4.01349    -1.92079
 Feature   EFS_by	VASP
END_CFG

BEGIN_CFG
 Size
    65
 Supercell
        10.068600      0.000000      0.000000
         0.000000     10.068600      0.000000
         0.000000      0.000000     10.068600
 AtomData:  id type       cartes_x      cartes_y      cartes_z           fx          fy          fz
             1    0       2.639470      4.618210      9.935540    -0.144281    4.325246   -1.138669
             2    0       2.143170      2.504830      2.238410     0.867338    0.599948    0.758670
             3    0       4.791370      9.993410      2.442930    -1.096968    0.424133   -0.805524
             4    0       4.765680      2.909510      4.814620    -0.964185   -2.671962   -1.013189
             5    0       2.334550      0.091730      4.641450    -0.184433    3.044772    0.516001
             6    0       2.403450      2.333530      7.037080    -0.319623    1.518473    0.632212
             7    0      10.015880      0.293840      6.881580    -3.208706   -1.793686    1.916754
             8    0       4.786890      9.984890      7.119610     0.226527   -0.031192   -0.239807
             9    0       4.604890      4.669250      7.326290     2.427873    1.138633   -0.399356
            10    0       0.147040      2.746760      9.508140    -1.343525   -0.858251    0.551608
            11    0       2.159800      0.203750      9.609600     0.466160   -1.136013    0.607756
            12    0       4.817130      2.178420      9.833120     0.910564   -0.123425    0.341983
            13    0       0.063060      5.264770      2.082900    -0.942187   -0.055060   -0.260837
            14    0       2.283700      5.165570      4.585540     0.766590   -0.370005    1.829318
            15    0       4.639770      7.361460      4.703930     1.630927    1.271256    0.069804
            16    0       0.103920      7.732590      4.699870    -2.506813   -0.452851   -1.296832
            17    0       2.394070      7.818600      2.472930    -0.914708   -0.092895   -4.164434
            18    0       4.617400      5.389900      2.365680     2.475296   -0.994721   -0.689638
            19    0       2.281150      7.434830      6.916170     0.942344    0.974691    1.633166
            20    0       0.268150      5.298350      7.197190    -1.891706   -1.100032   -0.417098
            21    0       0.423070      7.560060      9.510870    -2.091601    0.157344    0.554652
            22    0       4.698150      7.464810      9.785700     1.760816    3.174646   -0.819935
            23    0       6.936350      2.560820      2.051630    -1.940990    6.400627   -1.692596
            24    0       9.857440      0.451530      2.065490     0.098330   -1.757900    0.090159
            25    0       7.333320      0.625170      4.703710     0.033121   -3.185093    1.247000
            26    0       9.700900      3.124160      4.782280     0.598818   -2.704147   -0.323809
            27    0       7.409190      2.587060      7.447000     0.742106    1.288105   -1.364338
            28    0       7.346920     10.021120      9.326570    -2.384474   -0.687129    0.919264
            29    0       7.242640      5.162360      4.311300     3.900725   -0.223908    1.521596
            30    0       7.663580      7.742390      2.362870    -0.884776    1.486284   -4.137032
            31    0       7.396480      7.374180      6.630280     0.955600    0.958961    1.781829
            32    0       7.462980      5.189490      9.575040    -0.003125    0.534175    0.379652
            33    1       4.324400      2.318380      2.379000     1.237624    0.468768   -0.224443
            34    1       1.869250      0.038380      2.136720     1.758016    0.711146    0.165569
            35    1       2.132970      2.672930      4.680140     0.308704    0.342272   -0.068055
            36    1       4.783560      0.643620      4.776220     0.389323   -1.167925    0.430321
            37    1       9.878510      2.980930      2.565760    -0.127269   -0.495319   -1.097725
            38    1       1.940800     10.055710      7.189610     3.314447   -0.830208   -0.207429
            39    1       2.569460      4.791080      7.173870    -1.220082    0.541137    0.256977
            40    1       2.651120      2.566080      9.756930    -1.920058   -2.800056   -0.258265
            41    1       9.917880      7.677480      1.921510     1.014413    0.021518    0.341042
            42    1       4.395470      9.762840      0.216190    -0.069822    0.611778   -1.210165
            43    1       2.498800      5.432600      2.330250    -1.760253   -1.355586   -1.141716
            44    1       4.785260      5.454130      0.202130     0.961930   -1.585208   -1.120609
            45    1       2.413400      7.988020      4.601290    -0.369783   -2.540257    1.744784
            46    1       9.982890      5.225390      4.532370     0.049420    1.050991   -0.012099
            47    1       2.517080      7.298800      9.897670    -0.054100    0.215040   -0.081265
            48    1       0.484760      5.044310      9.583780    -1.634387    0.754264    0.146531
            49    1       7.010760     10.047130      1.816700    -0.701684   -0.839320   -0.894726
            50    1       7.202960      2.718200      4.434020    -0.181188    1.394550    0.792924
            51    1       7.737070      0.914070      2.504340     2.928804   -3.320088    1.572986
            52    1       9.836010      0.080560      4.751490     0.110234    0.677224   -1.376376
            53    1       7.451580      0.167050      6.945020    -0.237796   -0.368887    0.122854
            54    1       9.723780      2.523750      7.164760     1.295818    1.176601    0.249318
            55    1       6.973130      2.706240      9.603510     1.286650    0.465412    0.903052
            56    1       5.394710      2.112930      7.644810    -2.982685    0.342039   -1.111700
            57    1       7.533500      5.676030      2.141610     0.161872   -2.011813   -0.874105
            58    1       5.172200      7.630940      2.030720    -1.263200    0.090353    0.563875
            59    1       7.070070      7.684510      4.281970    -0.083132   -0.237939    2.952675
            60    1       5.238880      5.035030      4.544600    -2.842344    0.541417    1.954935
            61    1       9.859820      7.752170      6.932530     0.642254   -0.283149    0.280294
            62    1       5.309040      7.549010      6.978950    -1.405013   -0.056186    0.058812
            63    1       8.010170      5.232150      7.169590    -0.615895    0.007410    0.577025
            64    1       7.021520      7.888290      9.661360     0.099684   -1.075458   -0.295574
            65    1       9.248870      9.853970      9.600190     3.928465    0.496454    0.271946
 Energy
       -772.688077440000
 PlusStress:  xx          yy          zz          yz          xz          xy
         8.90923    -2.13673   -10.53618    -7.97160     4.25491    -1.16337
 Feature   EFS_by	VASP
END_CFG

BEGIN_CFG
 Size
    65
 Supercell
         9.984720      0.000000      0.000000
         0.000000      9.984720      0.000000
         0.000000      0.000000      9.984720
 AtomData:  id type       cartes_x      cartes_y      cartes_z           fx          fy          fz
             1    0       2.170710      2.770320      1.867060     0.447189   -2.345121    1.066010
             2    0       4.838630      0.241970      2.014960     1.284250   -0.666356    0.117420
             3    0       2.323030      0.006160      9.850660     0.270045    0.366506   -2.923285
             4    0       2.347570      9.892190      4.340310     0.732589    1.004982    1.548216
             5    0       2.279380      2.759040      7.230320     0.537420   -2.556858    0.580255
             6    0       0.510450      2.825120      4.988920    -1.092734   -1.193912   -1.713615
             7    0       9.934400      0.182660      7.374350     0.328969   -1.025313   -0.364013
             8    0       4.761140      2.559920      9.699670     0.594784   -0.084625   -1.315696
             9    0       4.754680      5.079850      1.886910     1.437418    0.796143    1.414243
            10    0       2.499800      7.556750      2.055490    -0.400813   -0.480559   -0.036099
            11    0       2.218110      4.953800      4.501290     1.287948    1.347364    0.115574
            12    0       0.012220      7.633960      4.601030    -0.261907   -0.109829    0.467751
            13    0       2.466840      7.714360      6.824160    -0.858793   -0.074607    1.847736
            14    0       4.804840      5.130250      6.854870     1.101036   -1.981738    2.865630
            15    0       2.195040      5.041470      9.780380     1.167241    0.429841   -2.526082
            16    0       0.007720      7.310400      9.784270    -0.874702    2.188362   -0.833104
            17    0       9.830950      0.104300      2.006790    -0.007576   -0.172055    1.142923
            18    0       4.875960      2.470730      4.714890    -0.840617    0.814550   -1.157387
            19    0       7.562460      0.393820      4.692750     0.531650   -1.352664   -0.243251
            20    0       7.415560      2.966490      2.393420    -0.657244   -0.904772    0.047851
            21    0       7.337710      2.406180      7.121470    -0.081911    2.374629    0.600388
            22    0       4.979270      0.123380      6.916730    -0.801858    0.019482    0.940341
            23    0       9.154970      2.778510      9.816140     3.061959   -1.268445   -1.792467
            24    0       7.335760      0.178000      9.785890    -0.252817   -0.752909   -1.055344
            25    0       7.149110      7.481150      2.042970    -0.441876    1.034493    1.733411
            26    0       9.661130      5.168660      2.238820     2.905929   -0.780455    0.833458
            27    0       7.520550      5.413650      4.578910    -0.676562   -1.823717    1.715637
            28    0       7.465030      7.616630      7.218390     0.750989   -1.598051    1.402299
            29    0       9.746460      5.352160      7.339560     0.025435   -1.352967   -0.238900
            30    0       5.198700      7.525510      5.047730    -0.727152    3.286892   -6.136127
            31    0       7.302320      5.272090      9.902140    -1.049473   -1.837112   -4.099226
            32    0       4.980400      7.666210      9.226750    -1.811846   -0.189643    2.851753
            33    1       2.530280      0.055820      2.055660    -0.949754    0.197340    0.264302
            34    1       9.827520      2.711390      1.912460     1.525348   -0.114418   -0.186540
            35    1       2.896920      2.232460      4.108900    -1.779794    0.270042    0.555722
            36    1       5.004240      2.970440      7.279940    -0.579176   -2.126803   -0.703830
            37    1       9.967710      0.091640      4.458410     0.803951   -1.229663    0.733299
            38    1       4.966890      0.208660      9.283670    -0.576607   -0.646925    0.830435
            39    1       2.175950      2.638400      9.504610     0.602196   -0.325603    0.220125
            40    1       4.847400      4.676810      9.467530    -0.170398    2.201584    0.701072
            41    1       2.457210      5.027980      1.876430    -0.713060    1.116849    3.002913
            42    1       4.617000      7.644450      1.511810     1.012387    0.017260    0.927165
            43    1       2.732740      7.492010      4.457410    -1.583620    0.350706    0.183069
            44    1       4.612470      5.672950      4.539880     0.379543   -3.698579   -1.098549
            45    1       2.486590      4.784770      7.742030    -0.686340    1.766590   -2.112293
            46    1       9.794560      7.855910      7.465320     0.879968   -0.877748   -1.505095
            47    1       2.516520      0.106780      6.987610    -0.222446   -0.320634    0.031321
            48    1       9.867980      4.984830      4.944720    -0.558704    1.398253   -0.410811
            49    1       2.441830      7.473980      9.581740    -0.105488    0.563329   -0.162469
            50    1       5.126920      2.714380      2.065540    -0.872995   -0.253121    0.534831
            51    1       8.614610      2.163630      3.998660     0.975749   -0.593974   -0.058551
            52    1       5.004530      0.110970      4.383950    -0.179079    0.277884    0.202958
            53    1       0.146980      2.693100      7.526620    -1.783750    0.036651   -0.974591
            54    1       6.836850      2.979000      4.958670    -0.534327    0.412783    0.151314
            55    1       6.989550      2.707650      9.703990    -0.295972   -0.374555    0.029232
            56    1       7.656320      9.654300      7.195810    -0.626967    3.402333    0.044393
            57    1       7.477910      5.339350      2.118330    -1.755024   -1.119256    1.428766
            58    1       9.516350      7.363320      2.192880     1.130458    1.397614    0.181250
            59    1       7.551550      9.437090      2.068340    -0.323982    2.951995    0.384790
            60    1       7.675230      7.819630      5.069500     0.268485   -0.085661   -1.903740
            61    1       4.983800      7.472690      7.039190    -0.720806    1.017002    2.264052
            62    1       7.144960      4.970550      7.080390     0.933200    0.481084    0.034443
            63    1       7.321360      7.639320      9.834420     0.194142    0.311890   -0.898970
            64    1       9.847790      4.872190      9.856520    -0.852226    1.038659   -0.259859
            65    1       9.484920      9.508320      9.606300     1.538121    1.445555    0.713546
 Energy
       -778.815821910000
 PlusStress:  xx          yy          zz          yz          xz          xy
       -22.82015    -8.42462    -3.91859     5.36324     2.28396    -6.01658
 Feature   EFS_by	VASP
END_CFG

BEGIN_CFG
 Size
    65
 Supercell
         9.983720      0.000000      0.000000
         0.000000      9.983720      0.000000
         0.000000      0.000000      9.983720
 AtomData:  id type       cartes_x      cartes_y      cartes_z           fx          fy          fz
             1    0       2.056120      2.416870      2.257910    -0.601842    0.096268    0.081984
             2    0       2.620620      9.735190      4.342910    -1.344432    1.010603    2.424487
             3    0       4.641410      2.551480      4.675810     1.375701    3.131442    3.162775
             4    0       2.443380      2.312750      7.449630    -0.603796    1.306720   -2.068737
             5    0       9.868100      9.912960      6.840020    -0.077833    0.878589    1.475105
             6    0       2.281670      9.960750      9.865380     0.811459    0.578667   -1.564848
             7    0       4.409410      2.845200      9.762330     1.625936   -0.813374    0.153795
             8    0       4.900750      0.169630      7.401120    -1.746210    1.141678   -0.650970
             9    0       4.787940      4.811490      2.389200     0.747258    1.048663   -1.157059
            10    0       2.548410      7.391170      1.920690    -0.077819    0.218146    0.667491
            11    0       2.410540      4.962050      4.277620     0.271313   -0.095441    5.215228
            12    0       0.124860      5.738940      2.311660    -2.333521   -1.887252   -1.171579
            13    0       0.202430      7.460400      4.529100    -2.072079    3.180303   -0.079276
            14    0       2.311000      7.624950      6.719930     0.256791    0.225975    1.870371
            15    0       4.827240      5.575410      7.263840    -0.869101   -1.309146   -0.876076
            16    0       0.115990      4.895780      7.042410     0.150176    0.606107    0.320686
            17    0       2.600700      5.128140      9.521050    -1.091527    0.212696    0.769231
            18    0       9.797400      0.538920      2.136380    -0.473343   -1.692672   -0.128642
            19    0       7.032270      3.203280      2.219910     1.867065   -0.938400    0.936061
            20    0       7.375520      0.503230      9.805100    -0.305600   -0.489684   -0.983720
            21    0       4.933400      0.359020      2.444230     1.733991   -3.278141   -2.954480
            22    0       7.272430      9.947990      4.458520     0.421184    1.651418    0.787044
            23    0       9.611770      2.501110      4.512700     0.825019    1.195336    2.072920
            24    0       7.391960      2.545380      7.181270    -0.076492    1.801014   -0.503134
            25    0       9.705380      2.520870      9.598310     2.146268   -0.352901    0.243130
            26    0       7.404820      7.743020      2.009770    -0.511431   -0.265644    1.073288
            27    0       4.916810      7.594940      4.316820     0.367795    0.494284    1.572230
            28    0       7.182790      7.246080      7.234210     1.510209    1.534961   -1.017665
            29    0       7.560150      5.482220      4.973350    -1.027721   -1.052496   -1.409158
            30    0       5.098130      7.763870      9.398010    -1.107708   -0.259730    1.748468
            31    0       7.441750      5.242260      9.667330    -1.178639   -0.765616    1.461664
            32    0       9.770580      7.899800      9.636440     0.274591   -0.253209   -0.715047
            33    1       4.304330      2.319150      2.562720     0.657823    2.274848   -2.062288
            34    1       2.893960      9.758970      2.140650    -2.424965    0.237098   -0.597414
            35    1       4.937880      0.602740      9.740340    -0.073643   -0.608661    0.608621
            36    1       2.325500      4.650070      2.232970     0.359081    1.472451   -2.044248
            37    1       1.987020      3.072300      0.172730     1.710221   -3.240375   -0.637673
            38    1       2.505610      2.523830      5.006450    -0.770373   -0.688156   -0.484698
            39    1       9.464640      9.942870      4.518060     1.305127    0.773458    0.443210
            40    1       0.031900      2.461890      7.165390    -0.456175   -0.276684   -0.385713
            41    1       0.407460      4.401620      9.217360     0.049915    1.164421   -2.448930
            42    1       2.288690      0.030670      7.400450    -0.000525   -0.122434   -0.708279
            43    1       4.962770      2.861670      7.654520     0.260813   -0.322703   -1.090140
            44    1       2.145600      7.515290      9.727110     0.600826    0.539110   -1.219114
            45    1       2.529810      7.275020      4.344670    -0.073725    1.572740   -0.099672
            46    1       9.970060      5.308320      4.665260    -0.213155   -2.057938    0.718986
            47    1       4.760030      8.224700      6.547240    -0.181738   -2.381993    1.110339
            48    1       2.464580      5.089080      6.831540    -0.246636    0.268204    1.293659
            49    1       9.690360      7.408810      6.986880     0.527200    0.381821    0.363254
            50    1       4.387440      5.670730      5.024540     2.335343   -1.796422   -0.069961
            51    1       9.481990      2.919240      2.431830    -0.100464    0.520958   -1.298591
            52    1       7.226610      2.907550      4.564510     0.443201   -0.224639    0.508088
            53    1       7.380690      1.040180      1.907850    -0.503512   -1.671752    1.272943
            54    1       6.879390      0.461010      6.869740     2.798436   -0.940112    0.560240
            55    1       5.182160      0.584430      4.922160    -1.644056   -1.610266   -0.571139
            56    1       7.589610      2.974740      9.877190    -1.728964   -0.282557   -0.527025
            57    1       0.011370      0.310390      9.295270    -0.513121   -0.995609    0.861097
            58    1       7.884870      4.991760      7.516040    -0.921675   -0.126863   -1.017142
            59    1       9.378640      5.802810      0.200810     0.372064    1.486319    1.526381
            60    1       4.794130      7.575420      2.158830     0.536673   -0.028578   -1.112623
            61    1       9.630410      8.248790      2.261030     0.889540   -0.937650   -1.095734
            62    1       4.996650      5.403940      0.289800    -0.255430   -0.108626   -1.668427
            63    1       7.496140      5.442450      2.570940    -0.145445    0.129328   -0.258924
            64    1       7.585460      7.764140      4.521150    -0.695629   -0.634770    0.063252
            65    1       7.477820      7.575990      9.633550    -0.782696    1.376868   -0.687904
 Energy
       -773.600650480000
 PlusStress:  xx          yy          zz          yz          xz          xy
       -16.17579   -10.28760   -12.47798     4.55884     5.24987    -8.78712
 Feature   EFS_by	VASP
END_CFG

BEGIN_CFG
 Size
    65
 Supercell
         9.941660      0.000000      0.000000
         0.000000      9.941660      0.000000
         0.000000      0.000000      9.941660
 AtomData:  id type       cartes_x      cartes_y      cartes_z           fx          fy          fz
             1    0       4.806780      0.148630      1.836280     3.776480   -0.717778    1.602812
             2    0       2.283010      2.405240      2.013240    -0.485895    1.766605    5.195040
             3    0       0.107570      0.223270      1.836300    -1.115384   -0.436516    3.147737
             4    0       2.401140      0.046580      4.378940    -0.040093    0.991688    0.954476
             5    0       4.701740      2.575510      4.590160     1.691852   -0.051190    1.127892
             6    0       2.006330      2.777400      7.113560     1.653318    0.097497   -0.332270
             7    0       4.347660      0.563370      6.918200     4.851737   -0.005748    0.535079
             8    0       2.376290      0.413620      9.408380    -0.669409   -2.835079   -0.328700
             9    0       2.538410      4.860840      9.552040    -0.613494    1.389183    1.599829
            10    0       2.499220      7.515160      2.113340     0.368433   -0.530200   -0.625542
            11    0       2.448690      4.976380      4.414760    -1.362903    1.391667    1.071185
            12    0       0.136500      7.765560      4.529630    -2.598138   -1.080043    0.682413
            13    0       0.180240      5.326000      7.271220    -1.814552   -0.273553   -0.514038
            14    0       4.784090      5.205900      7.164740     0.608963   -0.901535   -0.139614
            15    0       9.933550      7.574790      9.617140    -0.605291    0.788348   -1.306681
            16    0       4.749500      7.759380      9.121270     0.139289    0.201931    2.180182
            17    0       2.560380      7.641830      7.464270    -1.342975    0.482505   -1.346886