BEGIN_CFG
 Size
    65
 Supercell
        10.053100      0.000000      0.000000
         0.000000     10.053100      0.000000
         0.000000      0.000000     10.053100
 AtomData:  id type       cartes_x      cartes_y      cartes_z           fx          fy          fz
             1    0       0.258230      0.020190      1.711050    -1.127325   -0.170776    1.636275
             2    0       2.379200      2.544390      1.616350    -0.802235    0.974592    3.830300
             3    0       2.128970     10.047250      4.635030     0.854796    0.230215   -0.585214
             4    0       4.493220      2.415820      4.599830     1.052238    0.880810    4.237007
             5    0       2.365240      2.615490      7.198750     0.608527    0.918146   -1.060970
             6    0       2.229950      0.036910      9.571330     0.788821    0.675586    2.125793
             7    0       2.537800      7.571990      1.912410    -0.159351   -0.470285    1.360962
             8    0       2.357670      5.255700      4.912120     0.054093   -0.756753   -2.793755
             9    0       0.126370      5.295120      7.020480    -1.827731   -0.635340    0.707062
            10    0       2.347440      7.851390      7.114200    -0.545953    0.391182   -0.154379
            11    0       4.788300      5.424450      7.220640     0.434703   -3.019451   -1.019384
            12    0       2.319220      5.244470      9.736290     0.301566   -0.369603   -0.847866
            13    0       7.577030      2.769130      2.231400    -0.289076   -0.683417   -1.546041
            14    0       5.010030      0.075690      2.237900    -0.865249   -2.443882   -1.175963
            15    0       7.120510      0.002950     10.000030     1.589894   -0.316996   -1.071515
            16    0       7.334430      0.477630      4.710370     0.548620   -2.513187   -0.559488
            17    0       9.913030      2.554370      4.169840     1.597739    0.105166    1.780186
            18    0       9.658150      0.348050      7.230780     0.870708   -1.738267   -0.319972
            19    0       7.516300      2.441090      7.100520    -1.222332    0.624962   -0.883696
            20    0       4.946050      0.065680      7.331060    -0.315330   -0.179126   -1.310560
            21    0       4.907720      2.560830      9.381910     0.297236    1.530106   -1.912654
            22    0       7.314870      4.883910      9.498280     1.465660    1.286569    0.653515
            23    0       9.831970      2.522850      9.433900     0.227897    0.910527    0.435475
            24    0       7.532490      7.415940      2.430930    -1.411939    1.489690   -1.083202
            25    0       9.725070      5.346990      2.642260     2.099948   -1.659507   -5.236686
            26    0       9.753040      7.919440      4.563320     0.672016   -0.307669    0.667328
            27    0       5.047890      5.040020      2.349020    -1.185784   -0.095583   -1.561928
            28    0       7.453360      5.086880      4.857750    -0.577835   -0.196174   -0.523015
            29    0       4.872940      7.380920      4.924410     0.011453    2.115548   -2.716680
            30    0       7.390690      7.614210      7.230790     0.630456    0.455458    0.227610
            31    0       4.890890      7.383720      9.831230     0.320762    1.227259   -0.029036
            32    0       9.815800      7.544320      9.715660    -0.041074   -0.267445   -0.929617
            33    1      10.040320      2.697820      1.599250    -0.423498   -0.591462    0.989681
            34    1       4.711940      2.518510      1.357630     0.562834    1.069109   -2.199702
            35    1       4.843390      2.316550      2.595380     0.385131    1.435573    2.528987
            36    1       2.228960      2.579710      4.609630    -0.062089   -0.192182   -0.011506
            37    1       4.777670      9.840220      4.369750    -0.097863    0.906225    1.257945
            38    1       0.239440      2.545210      6.894200    -1.258920    0.782357    0.196103
            39    1       9.750170      0.244600      4.878180     0.406820    0.186961    0.139527
            40    1       2.409330      2.608470      9.531420    -0.189992    0.323997   -0.926288
            41    1       4.658310      0.469960      9.668710     0.324476   -2.467289   -0.476645
            42    1       2.126850      0.421530      7.586650     0.350514   -0.837908   -3.068983
            43    1       0.299350      7.407990      2.135770    -1.287813    1.163379   -1.111924
            44    1       2.762970      0.065600      1.899610    -0.292764   -0.504224    1.093416
            45    1       2.012300      7.657160      4.117230     1.410142    0.223606    1.730240
            46    1       4.618190      4.890500      4.478540     0.688576    0.253663    0.853457
            47    1      10.026670      5.195320      4.593570    -0.391546    0.011127    3.160368
            48    1       2.434780      4.782810      2.411510     0.118696    1.130023   -0.923871
            49    1       2.419600      5.521380      7.214670     0.275924   -1.124196    0.789123
            50    1       2.461220      7.840350      9.312030    -0.660767   -1.166567    1.376336
            51    1       7.408930      2.702640      4.482680    -0.122091    0.149751    0.745611
            52    1       8.351890      9.809680      2.541100    -1.586734   -0.000581   -0.361851
            53    1       5.209750      2.782410      6.811160    -0.647229   -0.536532    0.865287
            54    1       7.370530      9.869810      7.275760    -0.581674    1.260401    0.200649
            55    1       9.482070     10.030570      9.724670     0.504068    0.100595   -0.726988
            56    1       7.542840      2.396650      9.402980    -0.960182    0.355460    1.259222
            57    1       4.985290      7.657870      2.572980     0.372847   -1.083455   -0.941587
            58    1       7.604730      5.149380      1.946870    -1.520311   -0.954436    0.612527
            59    1       7.200090      7.494380      4.798240     0.517227    0.581324    0.312108
            60    1       7.434680      5.329160      7.204440     0.100583   -1.044312   -0.357317
            61    1       9.767200      7.798310      7.127290     0.312221   -0.099864    0.006646
            62    1       5.000740      7.642780      7.231100    -0.777077    1.268333    1.009367
            63    1       7.189180      7.348100      9.677510     0.730266    0.276879    0.337525
            64    1       9.873250      4.864270      9.230830     0.069540    0.633025    0.486530
            65    1       4.956180      4.975080      9.464890    -0.325238    0.498864    0.816116
 Energy
       -780.172093370000
 PlusStress:  xx          yy          zz          yz          xz          xy
       -51.30482   -44.92329   -14.79802     4.94302     3.82158     1.36480
 Feature   EFS_by	VASP
END_CFG

BEGIN_CFG
 Size
    65
 Supercell
         9.996960      0.000000      0.000000
         0.000000      9.996960      0.000000
         0.000000      0.000000      9.996960
 AtomData:  id type       cartes_x      cartes_y      cartes_z           fx          fy          fz
             1    0       0.124250      0.066880      1.828520    -0.962189   -0.319445    2.636313
             2    0       2.161000      2.582880      1.849820     0.316286    0.142828    0.383497
             3    0       2.004750      9.958510      4.525570     2.813398    0.682770    1.268748
             4    0       4.818300      2.486650      4.715210    -0.611937    0.932295   -0.996503
             5    0       0.138350      2.528710      4.568310    -1.549662    2.796105    0.309760
             6    0       2.434100      2.718730      6.996750    -1.375265   -0.376655    0.605241
             7    0       2.093360      9.909500      9.466710     1.296932    1.649041   -0.332945
             8    0       9.920750      2.575520      9.332080    -0.860936    0.900863    1.178595
             9    0       2.816300      7.739380      1.945260    -1.652189   -1.341526    1.038721
            10    0       4.856710      7.798840      9.952920     0.615631   -1.879069   -3.056874
            11    0       0.015470      5.047670      2.223700    -1.098390    1.183795   -1.032898
            12    0       4.768880      7.433830      4.711230     0.765862    1.506818    0.413158
            13    0       2.411670      5.461220      4.581260    -0.078340   -2.026261   -0.268410
            14    0       4.808280      5.243090      6.926260    -0.009328   -0.279685    1.654037
            15    0       9.915130      5.355240      6.825050    -1.935110   -1.967078    0.778798
            16    0       2.301210      7.597200      7.090500     0.513579    1.124687    0.354508
            17    0       2.285030      5.398890      9.854590     0.656129   -2.526759   -1.411617
            18    0       7.567270      2.563310      2.353320    -0.591351    0.270840   -2.031874
            19    0       7.316530      0.082320      0.104030     0.781375   -0.303100   -1.837255
            20    0       7.394470      0.285620      4.547430    -0.004729    1.301929    1.515311
            21    0       7.486810      2.388190      6.868670    -0.260269    2.901990    1.656442
            22    0       4.982120      2.967180      9.418220    -0.650412   -1.306488    1.184199
            23    0       5.026560      0.178540      7.461110    -3.185422   -0.751331   -2.378241
            24    0       9.645990      0.053750      7.482830     0.776164   -0.085533   -1.909845
            25    0       5.130000      5.042460      2.084150    -1.360449    0.320828    1.771568
            26    0       4.794270      9.690210      2.229140    -2.543054    2.899380    0.301475
            27    0       7.391030      7.559870      2.868130     2.194693   -0.764318   -3.991413
            28    0       9.578920      7.912770      4.960490     1.466269   -0.503373   -2.355519
            29    0       7.343890      5.127250      4.729920     0.794478   -0.052065   -1.554433
            30    0       7.298960      7.616040      7.109540    -0.320753    0.325174    1.665039
            31    0       9.857850      7.236290      9.773770    -2.289571    3.000804    0.078979
            32    0       7.334550      5.166020      9.409540     0.394479   -0.726149    0.393600
            33    1       2.506210      9.905440      2.207140    -1.432610    1.915174   -0.863764
            34    1       4.274660      2.838800      1.813450    -2.279073    1.523318   -0.943682
            35    1       4.766790      0.390110      4.896520     0.291893   -1.207360   -0.728130
            36    1       2.348850      2.529400      4.347020     0.667843    0.089861    0.484804
            37    1       4.720060      2.639330      7.148780     0.864750    0.102260   -0.394603
            38    1       2.261860      2.784020      9.376680     0.359946   -0.229546    0.050849
            39    1       9.772400      7.369930      2.156160     0.214037    0.597946   -0.406724
            40    1       2.391240      5.422980      2.282660     0.422233   -0.771332   -0.313007
            41    1       2.297390      9.976690      6.741140    -0.400906    0.162905    1.550464
            42    1       2.554110      7.762150      4.591650    -1.261460   -0.152092   -0.084980
            43    1       2.015850      7.633730      9.483330     2.107633    0.309491    0.227170
            44    1       9.764930      5.067660      9.600730     0.023963   -1.339710   -0.485461
            45    1       4.942280      5.334530      9.944670    -0.324938   -0.039860   -1.465997
            46    1       1.867120      4.994500      7.254690     2.854645    0.628371   -0.250985
            47    1       4.717090      7.718520      7.465740     0.370304   -0.057886   -0.871461
            48    1       9.872100      2.639830      2.163030     0.033098   -0.532153   -0.733471
            49    1       5.274960      2.156550      2.211650     2.860078   -1.040710    1.344757
            50    1       9.831590      0.466190      4.583390    -1.059193   -2.074500    0.301184
            51    1       7.469600      2.746420      4.618900     0.026957    0.208693    0.264158
            52    1       7.429350      4.780430      6.762150    -0.570606    0.959378    2.164474
            53    1       9.756720      2.837800      6.903040     0.923613   -0.658993    0.474358
            54    1       7.115990      0.311500      7.460170     1.751609   -1.894723    0.158210
            55    1       7.344980      2.757930      9.954450     0.265329   -0.353480   -0.783913
            56    1       7.511050      4.911750      2.460570     0.117260    0.177492   -0.793434
            57    1       6.749930      9.952080      2.339470     3.354548   -0.023703    0.556591
            58    1       4.947260      5.090730      4.559960    -0.342010   -0.589834    0.042076
            59    1       9.870440      5.429790      4.233770     0.387280   -0.433099    2.769879
            60    1       5.324040      7.500240      2.140920    -0.923702   -1.901037    1.293630
            61    1       7.040320      8.169520      4.886980     0.232951   -1.611409    1.477938
            62    1       9.864290      7.630900      7.242930    -0.421403    0.562256    0.576214
            63    1       7.590990      7.517480      9.816850    -1.157100   -0.101804   -0.342009
            64    1       9.638830      9.769340      9.767940     0.558113    0.442612   -1.271086
            65    1       5.043790      0.133040      9.604570    -0.561004    0.602162    0.965790
 Energy
       -779.501642960000
 PlusStress:  xx          yy          zz          yz          xz          xy
        -0.88080   -17.84340   -19.82100    -3.59499     0.60649    -2.66357
 Feature   EFS_by	VASP
END_CFG

