BEGIN_CFG
 Size
    65
 Supercell
         9.975340      0.000000      0.000000
         0.000000      9.975340      0.000000
         0.000000      0.000000      9.975340
 AtomData:  id type       cartes_x      cartes_y      cartes_z           fx          fy          fz
             1    0       0.074370      4.865650      2.298580    -3.332324    1.785174   -0.126603
             2    0       2.432430      2.875320      2.278670    -0.035753   -5.662561   -1.088898
             3    0       4.779410      0.466020      2.548130     0.152252    2.195480   -3.550711
             4    0       4.571630      2.708090      4.775960     1.537295    0.676913   -0.461469
             5    0       1.970130      0.015230      4.826280     0.772696   -1.956832   -0.935877
             6    0       2.466100      2.547790      7.104440     0.021395    0.773735    1.123083
             7    0       9.964480      2.782990      9.303700     0.800056    0.845230    1.236568
             8    0       0.309960      0.009820      7.531820    -1.353288   -0.662171   -2.287253
             9    0       2.613720      0.015360      9.771110    -1.246708    1.182981   -0.040796
            10    0       2.294250      7.401140      2.042160     2.060091    0.843148    1.804878
            11    0       4.841950      4.959380      1.926170    -1.699870    1.053594    0.157348
            12    0       0.139540      7.528700      0.063890    -2.011975    2.864063   -3.613610
            13    0       2.230230      5.171710      4.772700    -0.144753   -1.076963   -4.362474
            14    0       4.831440      7.913830      4.652000    -0.672908   -2.119452    2.659611
            15    0       2.218880      7.829110      7.052410     0.432022   -1.473909    0.570603
            16    0       4.705670      4.993830      6.898880     1.931161    1.136620    1.481409
            17    0       2.403260      5.070230      9.543040     0.958230   -0.776919   -0.231693
            18    0       7.439650      2.760960      2.207750    -0.269348   -2.548881   -0.147155
            19    0       9.499190      0.294600      2.383370     2.642077    0.135778   -1.482703
            20    0       7.508180      0.246840      4.783980    -1.360185    0.866034   -0.483483
            21    0       7.192910      2.266540      6.930960     1.250254    2.078949    0.369776
            22    0       4.921260      0.037800      6.796030     0.074429    0.001400    3.579357
            23    0       9.756100      2.713720      4.916530     0.404103   -0.506583   -2.117898
            24    0       7.666380      0.270350      9.459150    -1.855626   -0.617579    0.643712
            25    0       5.117920      2.403990      9.579890    -1.107067    1.224686   -2.828935
            26    0       7.396130      7.900080      1.994420    -0.409928    0.528112    0.358778
            27    0       7.121720      5.250560      4.694940     0.773340   -0.979016   -1.179778
            28    0       9.505220      7.472600      4.472280     1.174447   -1.557547    0.960215
            29    0       9.790400      5.042060      7.177740     0.050539    0.564317   -0.062391
            30    0       7.446720      7.681610      7.132340     0.185354   -1.607025   -0.172153
            31    0       4.926830      7.556230      9.526840    -0.013658   -0.078479   -0.570745
            32    0       7.611740      5.192050      9.374820    -1.693017    2.374651    0.324623
            33    1       2.092640      4.869060      2.300680     3.549917    3.179427   -1.034106
            34    1       9.862330      2.555920      2.302940    -0.034657    0.525756   -0.104778
            35    1       2.337220      0.567270      1.995720     0.142675   -0.463936    0.549379
            36    1       4.789400      9.888450      9.777580     0.778876    0.440752   -0.299332
            37    1       2.438930      1.945930      4.761030    -1.266107    3.515116   -0.487738
            38    1       9.971770      2.328690      6.964380    -0.433889    0.549449    1.774992
            39    1       2.745460      0.306300      7.197860    -1.430183   -0.697269    0.205699
            40    1       2.626910      2.565530      9.395890     0.006785   -0.204504    0.797194
            41    1       9.905410      0.688950      9.682260     0.417745   -1.445941    0.737981
            42    1       0.150870      7.789790      2.188720    -1.942272   -0.254292    1.692929
            43    1       2.014400      7.309070      4.705510     0.214645    1.399798   -0.459292
            44    1       4.633970      4.872650      4.327960     0.744421    1.528593    0.214005
            45    1       4.596620      8.468740      2.746970    -0.012393   -2.469765   -2.577673
            46    1       2.406340      5.471200      6.657070    -0.465580   -0.011331    5.285582
            47    1       2.351940      7.349780      9.617070     1.312798    0.893271   -0.591029
            48    1       0.011970      5.499980      9.830720    -0.061070   -2.823378   -0.599347
            49    1       5.140010      2.751620      1.600210    -0.537584    0.225127    2.447665
            50    1       7.197280      0.585120      2.417220    -0.071816   -1.121784   -0.660273
            51    1       7.802150      4.779300      2.106640     4.245623   -2.191745   -0.745596
            52    1       4.843800      0.549030      4.699950     0.073088   -2.181732   -0.204337
            53    1       7.291050      2.863220      4.510900    -0.160561   -0.184080    0.140898
            54    1       7.311110      4.498130      6.680800    -0.072492    1.535980    2.207039
            55    1       7.621970      3.247850      9.454970    -0.541985   -4.044791    0.385149
            56    1       4.820490      2.783670      7.402980     0.241652   -1.710346   -1.579050
            57    1       6.920640      5.645710      2.222590    -4.231718    5.028485    0.145955
            58    1       9.742790      5.183460      4.875530    -0.374415   -0.657426   -0.529865
            59    1       9.637430      9.473470      4.840430     0.695424    2.351158   -0.076820
            60    1       7.072750      8.020580      4.769080     1.061357   -1.187762   -1.011650
            61    1       7.375040      9.851200      7.022880     0.871721    0.325994    1.176461
            62    1       5.070700      7.467690      6.899550    -0.882927    0.312910    0.951100
            63    1       9.742140      7.478140      7.280710     1.062843   -0.099858   -0.555068
            64    1       7.668670      7.843050      9.235190    -0.799993    0.067141    2.258537
            65    1       4.947940      4.974850      9.180650    -0.113262    0.364039    1.020056
 Energy
       -775.355153740000
 PlusStress:  xx          yy          zz          yz          xz          xy
         3.11089    24.55634     5.52990     1.11887     1.88165    -7.06100
 Feature   EFS_by	VASP
END_CFG

BEGIN_CFG
 Size
    65
 Supercell
         9.786420      0.000000      0.000000
         0.000000      9.786420      0.000000
         0.000000      0.000000      9.786420
 AtomData:  id type       cartes_x      cartes_y      cartes_z           fx          fy          fz
             1    0       2.409190      2.559600      2.195250    -0.023243    1.414598   -0.926797
             2    0       4.882680      0.220800      2.087460    -0.108545   -0.339768    1.342256
             3    0       0.028180      0.245660      2.132470    -0.882298    0.053467    1.372801
             4    0       4.812300      2.654400      4.630260     1.350848    0.320821    0.555501
             5    0       2.385720      0.151580      4.673470     0.393822    0.301050   -0.798986
             6    0       9.723280      2.725280      4.660520     1.632696   -0.124014   -3.406708
             7    0       2.466580      2.676650      7.055550     0.271265   -1.112844   -0.482436
             8    0       0.014020      0.149040      7.184400    -0.153550    1.632371   -0.868668
             9    0       4.866350      0.191350      7.051320     0.681504    0.970376    0.997661
            10    0       4.884860      2.738660      9.615670    -0.095631    0.080986   -0.348819
            11    0       2.394880      0.259020      9.512840     1.215239   -2.022835   -0.351797
            12    0       9.705170      2.609840      9.548000     0.588971   -0.346128   -2.599765
            13    0       2.280520      7.570520      2.192050     1.721332   -0.791552    0.874354
            14    0       9.726200      5.168980      2.246410     0.323439   -0.300394   -0.323750
            15    0       4.934440      5.048990      2.201540    -4.089216    1.275955    0.302277
            16    0       2.399920      5.215970      4.685280     0.985618   -1.193672   -0.839406
            17    0       4.922820      7.536940      4.646950    -1.444571   -0.106942   -0.464784
            18    0       9.726040      7.622740      4.663370    -0.011925   -0.021082    1.241960
            19    0       2.449180      7.561030      7.103140    -0.381587   -0.941556    0.239061
            20    0       0.018420      5.088040      7.098380    -0.877290    2.548672    1.264204
            21    0       4.782560      5.110030      7.218650     0.707211    0.830161   -1.118767
            22    0       2.363570      5.088570      9.440420     0.038595   -0.285986    1.388213
            23    0       9.765770      7.595230      9.490420     0.341466   -1.639840    2.178705
            24    0       4.920890      7.596790      9.562850    -0.662207    1.039216    0.288342
            25    0       7.388750      2.715290      2.130600    -0.919048   -1.094683   -2.009889
            26    0       7.343680      0.211040      4.740290     1.167453   -1.685806   -1.718404
            27    0       7.303380      2.695050      7.123260     0.417540    0.198018    0.345579
            28    0       7.328060      0.131490      9.565750    -0.074340    1.139353    0.189666
            29    0       7.375950      7.597890      2.210940    -0.800936   -0.261737    1.018522
            30    0       7.386400      5.141490      4.636770    -0.764816   -0.358779    0.191181
            31    0       7.350510      7.478840      7.031360    -0.839636   -0.311818    2.005111
            32    0       7.300350      5.195580      9.580010    -0.128372    0.195421   -1.076864
            33    1       2.403870      0.141860      2.113200     0.328995    0.226964    0.459767
            34    1       0.155670      2.894350      1.807280    -1.100851   -0.972133    2.488082
            35    1       2.639070      2.618960      4.394140    -1.534711    0.066269    1.363611
            36    1       4.839450      0.033970      4.457600    -0.882438   -0.118537   -0.252074
            37    1       2.637100      0.019050      7.057570    -1.432097    1.244151    0.067696
            38    1       5.056460      2.846090      7.255600    -2.185538    0.442500    0.812122
            39    1       2.365930      2.365190      9.427340     0.384860    2.332668    0.390201
            40    1       0.127040      0.116680      9.702140    -1.235382    0.519399   -1.600120
            41    1       2.451140      5.062140      2.136860    -0.466533    0.079156    0.213480
            42    1       4.626040      7.625100      2.206060     1.136320   -0.339895   -0.038279
            43    1       2.357960      7.506160      4.535170     0.303498    0.503657    1.004440
            44    1       0.083160      5.096750      4.941080    -0.437839    0.694736   -2.027686
            45    1       2.355240      4.976060      7.047280     0.111987    0.916941    0.028195
            46    1       9.674140      7.727570      7.306210     0.607848   -1.126283   -1.479855
            47    1       2.339740      7.524170      0.050250     0.849972   -0.072906   -2.371973
            48    1       4.797870      5.398040      9.513880     0.089758   -1.449550    1.006409
            49    1       7.349820      0.191830      2.546230    -0.048537    0.384010   -2.009542
            50    1       4.660950      2.667810      2.342910     1.444551   -0.213395   -0.664479
            51    1       7.482530      2.861120      4.106750    -0.247696   -0.526350    2.800748
            52    1       9.741870      0.494930      4.437820     0.123906   -1.446196    1.284398
            53    1       9.667170      3.050300      6.645050     0.698836   -2.410760    3.129035
            54    1       6.221980      1.421450      5.850860    -0.753982    1.161696   -0.330522
            55    1       7.323880      9.643770      7.224260     1.110405    0.639240    0.863878
            56    1       4.769410      0.423920      9.531690     0.759051   -0.622341   -0.461253
            57    1       7.450140      2.962240      9.415970    -1.217939   -1.506457    0.507552
            58    1       6.931950      5.083610      2.093620     3.684477    0.397195    0.781354
            59    1       9.775730      7.531950      2.396390    -0.708649    0.792033   -1.236428
            60    1       7.204230      7.416220      4.779820     0.764883    1.075090   -1.000754
            61    1       5.024570      5.163450      4.944350    -0.595428   -0.358649   -1.455711
            62    1       7.144070      5.037720      7.082150     0.885286    0.152509    0.166081
            63    1       4.859720      7.758030      7.108440     0.128146   -1.434083   -0.152274
            64    1       7.488330      7.570670      9.687750    -1.168110    0.144735   -1.146043
            65    1       9.557030      4.818890      9.531390     1.023162    1.763554    0.400388
 Energy
       -794.458435020000
 PlusStress:  xx          yy          zz          yz          xz          xy
        21.48601    27.12107    34.33743     5.33013    -0.70084    -0.87591
 Feature   EFS_by	VASP
END_CFG

