BEGIN_CFG
 Size
    65
 Supercell
        10.037800      0.000000      0.000000
         0.000000     10.037800      0.000000
         0.000000      0.000000     10.037800
 AtomData:  id type       cartes_x      cartes_y      cartes_z           fx          fy          fz
             1    0       2.410110      3.074490      2.061900    -1.665645   -0.576449    0.899350
             2    0       4.663660      0.347980      1.651390     1.529728    0.059417    0.726114
             3    0       9.972580      0.363740      1.935610     0.463948   -1.884152   -0.799758
             4    0       4.798530      2.522940      4.884970     0.614534    2.487060   -2.322569
             5    0       2.334900      0.561610      4.199010    -1.864081    0.225403    2.811079
             6    0       2.159320      2.602640      7.090950    -0.180263    1.726355   -1.176542
             7    0       4.654340      0.900900      6.703170     0.209516   -0.595104    1.620908
             8    0       2.224470      0.754740      9.010210     0.631670   -3.942170   -0.174433
             9    0       4.839210      2.419870      9.951210     0.176331    2.297007   -3.078114
            10    0       0.287010      2.695020      9.624810    -2.656726    1.273472   -0.865659
            11    0       2.425500      7.990450      2.036330     0.395857   -0.519389   -1.527834
            12    0       0.135270      5.195150      1.843880    -0.947243    0.502069    0.170656
            13    0       2.476950      5.397570      4.376410    -1.513792   -0.570797    0.810648
            14    0       2.104780      7.899200      6.379620     0.175209    0.104769    4.054088
            15    0       0.045850      7.913720      9.342500     0.109500   -0.321625    1.403067
            16    0       2.497540      5.594800      9.431250     0.306764   -0.113821   -0.859693
            17    0       7.231540      2.661300      2.142320     0.076337    0.572669   -0.007527
            18    0       9.208130      2.538560      4.415290     1.758208    2.724732   -0.485414
            19    0       9.190500      0.573850      6.253910     3.531172   -1.448527    3.085898
            20    0       7.351630      3.137260      7.162140    -0.297832    1.862554    1.320926
            21    0       6.437970      9.935580      5.134790    -1.437193   -5.127955   -3.064310
            22    0       7.669940      0.251070      9.052790    -1.612654   -0.508803    2.172579
            23    0       4.876220      5.485990      1.897620     0.042917    0.294211    1.962507
            24    0       7.182450      8.510490      1.803530     0.785810   -1.686705    0.971967
            25    0       7.242680      5.372830      9.988180     1.746879    2.358192   -1.879157
            26    0       7.690310      5.547000      4.445130    -2.051247   -0.777373   -3.390916
            27    0       4.941070      7.698200      4.562980    -0.428796    2.415547   -2.081212
            28    0       9.739800      8.000330      4.115720     0.145183   -0.440361    2.004533
            29    0       7.541380      8.267000      6.967440     0.957143   -1.623886   -0.132591
            30    0       5.324080      5.667020      6.860690    -2.070422   -2.091742    1.566069
            31    0       9.818210      5.359280      6.944680     6.167304    0.958875    1.473631
            32    0       5.232610      7.858110      9.416760    -2.264796    1.172201   -1.219563
            33    1       2.610790      0.612270      2.085800    -1.471984   -0.375488   -1.683713
            34    1       0.104590      2.364270      2.023240    -0.965612    3.351012   -0.189971
            35    1       4.453720      2.952140      2.123910     1.958270    0.075710    0.459346
            36    1       2.523890      0.211500      6.756010    -0.951379   -0.499897   -0.550743
            37    1       0.144340      3.390920      6.542740    -1.464548   -0.978645    1.727407
            38    1       1.294090      2.495000      4.801270     2.093497   -0.717890   -1.119954
            39    1       2.486550      2.777770      9.781410     1.204047    2.260753    0.260079
            40    1       2.609730      5.435970      1.774110    -0.747414    0.482061    0.185418
            41    1       9.693570      5.622980      9.573930     0.836681   -0.471813   -0.276982
            42    1       4.634660      5.586100      4.540920     0.813186   -0.697204   -0.331718
            43    1       2.491310      8.361670      4.442650    -1.378092   -1.916906   -1.798417
            44    1       9.901650      5.280110      4.055920    -0.131443    0.659262    0.635517
            45    1       4.274120      9.999670      4.081520     2.586952    1.576112   -0.321553
            46    1       2.501650      5.384370      6.567290    -0.444607    0.189242    0.624583
            47    1       9.786160      7.741510      7.086030     0.641172    0.315661   -0.703207
            48    1       2.571580      8.110390      9.216640    -0.586831   -0.786069    0.422137
            49    1       4.872270      5.375780      9.747330    -0.846974    1.226308   -0.443729
            50    1       6.776790      3.432980     10.000160     0.973969   -3.058866   -0.113401
            51    1       7.758260      0.589160      1.373930    -0.496496   -0.240581   -0.389439
            52    1       6.597410      3.405110      4.164520     0.613000    0.526487    0.709902
            53    1       9.600320      0.359320      4.157650     0.344918   -1.396443   -0.993307
            54    1       7.213550      1.443050      5.843450     1.014128    4.234007    0.912290
            55    1       4.965000      3.549870      7.488060     0.435465   -1.325696   -0.885202
            56    1       8.808290      1.738040      8.261070    -0.590669    1.116285   -0.704594
            57    1       4.894180      0.492270      8.765270     0.084328   -0.983161    1.268089
            58    1       0.047700      0.029870      9.833120     0.343345    0.335912   -0.874135
            59    1       7.325770      5.180520      2.074210     0.858621    0.267030    0.341399
            60    1       4.935460      8.064670      1.872770    -0.637288   -0.764388    0.034017
            61    1       9.900660      8.054750      2.021400     0.118468   -0.771909   -1.397890
            62    1       7.231010      7.882350      4.470370     1.323815   -0.714448   -0.700509
            63    1       5.335450      7.919040      6.795400    -0.786377    0.301262    0.785441
            64    1       7.980610      5.556230      6.566730    -5.464212    0.502135    0.993807
            65    1       7.699080      8.057820      9.478460    -0.113258   -0.525510    0.130307
 Energy
       -766.667251420000
 PlusStress:  xx          yy          zz          yz          xz          xy
        10.85461    11.75059     4.10212     4.15449    -2.55031     0.65570
 Feature   EFS_by	VASP
END_CFG

BEGIN_CFG
 Size
    65
 Supercell
        10.154800      0.000000      0.000000
         0.000000     10.154800      0.000000
         0.000000      0.000000     10.154800
 AtomData:  id type       cartes_x      cartes_y      cartes_z           fx          fy          fz
             1    0       1.991230      3.034160      1.782400    -0.015640   -2.013981    0.288625
             2    0      10.039220      0.120030      1.742340    -0.694710    0.515679   -0.781596
             3    0       2.012370      0.594380      4.455410     2.273973   -0.512224   -0.136852
             4    0       4.633250      2.926290      4.496520     1.385213   -4.670255    1.614906
             5    0       9.941000      2.573890      4.162000     0.812029    5.360732    0.691454
             6    0       4.688710      0.655990      7.319100     2.217618    0.230065   -0.979982
             7    0       2.215900      2.571540      7.382760     0.150132    2.362629   -0.938254
             8    0       2.540100      0.290440      9.783800    -0.503131    0.529176    0.129949
             9    0       4.585290      2.765530      9.948080     1.139147   -0.028442   -1.687095
            10    0       1.915030      7.751600      1.971070     1.359674    0.184770    0.294286
            11    0       2.404100      5.433650      4.082550     0.152101    1.592772    1.696245
            12    0       4.126820      8.593750      3.346350    -0.719576   -1.888251    2.966809
            13    0       2.601920      8.114610      7.243180    -1.041487   -0.496983   -4.618120
            14    0       0.286350      5.655540      6.944330    -0.934927   -0.545858   -0.186580
            15    0       2.253040      5.223120      9.572880     0.201825   -0.236545    0.009226
            16    0      10.141940      7.701450      9.204640    -1.372333    0.614166    1.341003
            17    0       7.433230      3.242110      1.880120     0.917649   -2.039987    0.739422
            18    0       5.366090      0.217600      2.005450    -3.820820    0.559961    1.603035
            19    0       9.463850      4.864300      1.950490     1.384897    0.848812   -0.772560
            20    0       7.787320      0.536120      4.611100    -4.450963   -2.239800   -0.961016
            21    0       7.474830      3.146270      6.499180    -0.787510   -0.589609    2.817737
            22    0       9.496630      0.590130      7.174880    -0.695599   -4.068541    1.425670
            23    0       7.419960      0.285950      9.653470     0.383182   -0.680281   -1.388269
            24    0       9.279350      2.887620      9.386670     4.749092    0.577117    0.066903
            25    0       7.596390      7.691370      1.986740     0.948772    1.764259    0.451071
            26    0       5.148200      5.140400      1.455280    -1.534539    2.719234   -2.183574
            27    0       7.345710      5.436900      4.507870     0.125946    1.714151   -1.348136
            28    0       9.929430      8.195200      4.691160    -0.046066   -0.767736   -0.771646
            29    0       7.071210      8.008260      6.943230     1.189631    0.409322   -1.244316
            30    0       4.851470      5.484750      6.927090    -0.880251   -2.700663   -0.982985
            31    0       5.250830      7.698710      9.516560    -1.753039    0.874113    2.864049
            32    0       7.331510      5.336750      8.941360     0.683525   -0.160610    1.482429
            33    1       2.350600      0.732690      1.765190    -0.751343   -0.430517    0.821456
            34    1       9.796190      2.483780      1.768140     0.399364   -0.005601   -0.602912
            35    1       2.514320      3.265690      4.322060    -1.466510   -0.807240   -0.189739
            36    1       2.394950      0.433490      7.081030    -0.535815   -0.781159    0.101634
            37    1       4.589780      3.143230      6.623400     0.550911   -1.036496    0.944600
            38    1       0.077540      2.247740      6.516990     0.833075    3.474822   -0.394649
            39    1       1.864220      2.694290      9.699480     1.098880    0.116877   -0.621679
            40    1       2.008470      5.292520      1.932650    -0.118972    0.852073   -0.507250
            41    1      10.042550      7.825460      1.716010    -1.328115   -0.410625    0.187546
            42    1       0.154890      5.010080      9.829420    -1.870066    0.447187   -0.519895
            43    1       2.106930      8.408430      4.534060    -1.439026    0.326811   -0.289337
            44    1       2.649890      5.277480      6.941210    -0.810391    0.982892    0.322807
            45    1       0.010060      5.954170      4.789550     0.079010   -0.611738   -0.014465
            46    1       4.678120      7.472190      7.531010     0.354276    1.399194   -1.176736
            47    1       2.937310      8.411300      9.149320    -0.474279   -1.146306    3.067818
            48    1       0.079460      9.824110      9.544070    -0.516910    0.835659    0.030070
            49    1       5.324660      2.309160      1.850110     0.202486    1.130427   -0.539439
            50    1       7.307610      0.170210      1.984410     4.558462   -0.078394   -0.223092
            51    1       7.548750      2.975880      4.453960    -0.396131   -0.245119   -1.588819
            52    1       5.227810      0.209490      4.358840    -0.017314    1.233010    0.385800
            53    1       4.750370      4.333880      3.211010    -0.513575    3.377467    1.205484
            54    1       9.983660      0.595450      4.108850     0.089747   -3.868184    0.045816
            55    1       6.950270      0.859210      7.290500     0.486641   -1.156204   -0.558554
            56    1       7.332340      2.586940      9.608100    -2.354587    0.863588    0.646307
            57    1       5.113720      0.142280     10.083500    -0.216041    0.501921   -2.825689
            58    1       7.293650      5.498480      1.745830     0.348752    0.123779   -0.177832
            59    1       5.543660      7.664970      1.927120    -0.274161   -0.312131   -1.850719
            60    1       7.418280      8.044370      4.293610     2.148371   -0.505116    0.746544
            61    1       4.699310      7.322450      4.633810    -0.166850   -2.518774    1.505384
            62    1       7.479810      5.614000      6.623930    -0.098869    0.371295    1.108470
            63    1       9.770190      7.932520      6.936630     0.346706    0.374188   -0.058813
            64    1       7.392170      8.013000      9.624030     1.231790   -0.432912   -0.513317
            65    1       4.962000      5.012370      9.199880    -0.203331    0.718133    0.031362
 Energy
       -767.027885030000
 PlusStress:  xx          yy          zz          yz          xz          xy
       -13.21720    -7.40515   -10.98615    -4.89357    -8.23926    -1.03581
 Feature   EFS_by	VASP
END_CFG

BEGIN_CFG
 Size
    65
 Supercell
        10.384100      0.000000      0.000000
         0.000000     10.384100      0.000000
         0.000000      0.000000     10.384100
 AtomData:  id type       cartes_x      cartes_y      cartes_z           fx          fy          fz
             1    0      10.343540      0.429440      1.522430    -0.308466    4.136730   -0.241297
             2    0       2.219760      2.831150      1.828730    -0.465632   -2.077737   -4.520954
             3    0      10.293340      3.715690     10.103300    -2.341465   -1.659293   -4.359079
             4    0       1.992110      0.284880      4.823740     3.302486    2.146809   -1.957632
             5    0       0.007850      2.203490      4.711910    -0.748454    0.923187    0.858286
             6    0       4.616120      2.997790      4.187250     2.656677   -1.500243    0.795376
             7    0       1.964470      3.471710      6.519120    -1.015346    0.831290    2.277872
             8    0       4.538440      0.722260      6.977600     0.803072   -0.883072    0.007057
             9    0       1.507190      0.495380      8.546770     1.096010    0.624558   -1.117216
            10    0       4.868070      2.773990      8.792920    -0.985212   -0.681252    3.207722
            11    0       2.748320      8.472170      1.962800    -0.289467    1.887824   -1.351326
            12    0       2.623220      5.694950      3.779970    -0.261834   -0.109488    0.797754
            13    0       4.588970      8.320300      4.614840    -3.224577    0.893956   -1.872439
            14    0      10.172420      7.987980      4.127820    -1.548921   -0.338760   -0.621023
            15    0       1.784600      7.666960      7.054820     1.985329    2.226365   -0.350702
            16    0       2.577070      5.970960      9.892370    -0.573581   -2.602354   -0.450613
            17    0       0.642940      7.919880      9.985500    -2.066793    0.234929    1.006148
            18    0       7.547660      2.344610      1.440380     0.963663    1.995594   -0.849210
            19    0       5.218640      4.754380      1.881080     0.569737    0.268329   -1.263908
            20    0       4.978860      0.071490      1.560460    -8.248534    1.005577    0.543325
            21    0       7.135110      0.618750      4.186080    -0.941156   -0.732637    0.864407
            22    0       7.458410      4.286910      4.832280     1.881805   -0.574882    5.189346
            23    0       8.557190      2.354330      7.900080     5.731867   -3.696664   -3.869774
            24    0       9.358640      5.218060      2.200640    -0.931062    0.516033   -0.971821
            25    0       6.636620      7.633300      3.281050     0.193083   -0.149948   -3.184078
            26    0       9.397980      9.541880      7.309550    -0.398459   -0.162641   -0.963198
            27    0       6.371790      7.956170      6.110250     2.911838   -0.193695    4.179142
            28    0       5.063290      5.694340      6.425320    -0.454046    3.972273   -0.463734
            29    0      10.003900      5.903710      7.314530    -1.933062   -0.653131    0.778994
            30    0       5.088140      7.674520     10.055300    -0.290813    0.724218    0.033691
            31    0       6.989620      5.421530      9.546620     2.678838    1.130205    0.454185
            32    0       7.310840      9.909700      9.683340    -0.368001    0.590214   -1.678751
            33    1       1.057770      4.656540      0.859810     3.959714    2.485710    2.407575
            34    1       1.336880      0.045790      0.005510    -0.433059   -1.211844    0.947628
            35    1       2.673380      3.282880      3.625510    -1.781880    0.465211    4.133133
            36    1       2.253980      0.215900      2.292790     0.488486    0.532681    1.267263
            37    1       4.604630      0.829460      4.579950    -0.062645    0.096149    0.446766
            38    1       0.302720      1.379520      7.148520    -1.088823    1.101112   -1.932932
            39    1       2.267360      2.385810      8.658320     2.032884    0.435986   -0.397298
            40    1       0.982490      4.713990      8.352690     0.491904   -0.414092    0.551487
            41    1       4.557420      4.974910     10.223920     0.033051    0.488335   -1.135753
            42    1      10.336720      9.046730      2.058200     0.262695   -4.877026    0.557949
            43    1       4.654580      6.623200      2.758280    -1.707579    0.507334    0.823150
            44    1       2.304060      7.818120      3.948120    -0.703971    1.080730    0.987206
            45    1       1.511200      5.938080      6.134250     1.365961   -1.494774   -2.551894
            46    1       0.489590      9.563860      5.302340    -1.602531   -0.290986    1.079977
            47    1       2.800870      8.141200      9.956630     0.699930   -0.006238   -0.512171
            48    1       6.757410      0.389220      1.350570     6.443695   -0.631044    0.900536
            49    1       4.936590      2.561910      1.364270    -0.113776   -0.501144    1.284789
            50    1      10.142600      2.691640      1.616910    -0.398912   -0.920558    2.183934
            51    1       7.060920      3.960810      3.004170    -0.393482   -1.554389   -3.764292
            52    1       5.021410      3.907770      6.994540    -0.839385   -3.108905   -0.862525
            53    1       8.356020      1.933620      5.300380    -0.160095    0.098717    0.161412
            54    1       9.622070      4.330330      5.960590    -0.374585   -1.306186   -0.350633
            55    1       7.243900      3.176870      8.760900    -5.821503    3.553383    3.698506
            56    1       5.169670      0.357690      9.740760     0.151383   -0.636437   -0.638417
            57    1       9.005870      1.370850      9.908330    -0.573037   -0.791722   -0.079538
            58    1       6.893520      6.593090      1.022370    -0.752609   -0.479774    0.706068
            59    1       8.058930      9.172250      4.267350     0.435854   -0.492754   -0.177570
            60    1       7.847580      6.147160      4.107480     1.773753    1.460507   -0.818757
            61    1       9.489530      7.765050      6.234940     0.151091   -1.340867    0.133544
            62    1       6.213700      9.976040      6.903830     1.198856    0.322212   -0.082853
            63    1       8.243830      8.297540      8.676350     1.924397    1.230162    0.382820
            64    1       6.161940      7.193520      8.223890    -1.535635   -1.193840   -0.172840
            65    1       9.224490      5.689380     10.123000    -0.449674   -0.697943   -0.082825
 Energy
       -748.525413910000
 PlusStress:  xx          yy          zz          yz          xz          xy
        10.62473    15.98215    -2.94671     1.85225     8.85631    14.33736
 Feature   EFS_by	VASP
END_CFG

BEGIN_CFG
 Size
    65
 Supercell
        10.433900      0.000000      0.000000
         0.000000     10.433900      0.000000
         0.000000      0.000000     10.433900
 AtomData:  id type       cartes_x      cartes_y      cartes_z           fx          fy          fz
             1    0       2.191020      2.613690      1.301600     0.628736   -0.532975   -0.098062
             2    0      10.327320      3.343410      4.437110     2.180557    5.431590    1.910269
             3    0       1.517180      0.841570      4.472390     0.842091   -2.604437   -0.372865
             4    0       1.659780      3.502620      7.074360     4.342410   -0.056847    1.246652
             5    0       4.239400      3.025120      5.207910     3.949654    0.348981   -0.077554
             6    0       2.165590      0.453880      9.140580    -0.928555    0.834018   -0.713807
             7    0       1.969900      8.773940      1.718190     0.334465    0.930368    0.181921
             8    0       2.741710      4.932080     10.207460     2.348437   -1.314472   -0.973949
             9    0       4.570060      7.990580      0.308790     2.032750   -0.640834    0.041908
            10    0       1.768070      5.408410      3.568830     1.223441    0.464913    1.497806
            11    0       4.536480      7.729070      4.145250    -0.025486   -2.035269    1.720744
            12    0       0.352990      8.053850      4.308830    -1.499033    0.569901   -1.020566
            13    0       2.584450      7.248590      6.929570     1.247345   -0.604733   -1.149543
            14    0      10.199830      9.075920      6.479270    -1.194714    2.244013    2.725843
            15    0       0.682120      7.051490      9.233770    -3.182120    5.121880   -0.481108
            16    0       9.797050      0.684320      1.520250    -0.207877    0.297739   -2.113740
            17    0       6.735990      1.740180      0.409090    -0.278880    1.996474    1.373648
            18    0       5.622610      4.738760      2.076440    -2.487765   -0.766935   -0.758827
            19    0       7.965200      0.421160      4.577940    -0.577081    3.658271    3.688255
            20    0       8.743440      4.400910      2.789870    -0.700494   -0.601360   -0.229461
            21    0       5.057620      0.726700      2.636540    -3.059802   -1.931405   -2.203566
            22    0       8.367120      2.468240      7.148790    -1.536318   -2.310819   -0.731346
            23    0       4.825880     10.387510      7.066680    -1.109690    1.314499   -2.519744
            24    0       9.799110      3.372180      9.497530     1.231455   -0.251975    0.660660
            25    0       5.344040      3.036680      8.260610    -1.701913    0.301380    1.053878
            26    0       6.505880     10.091680      9.676570     3.259930    0.490125    2.615806
            27    0       8.123910      8.126660      2.384270    -1.233653   -1.458256   -2.152143
            28    0       9.156090      5.644970      6.003350    -0.473652    1.105970    2.591903
            29    0       6.484970      5.164590      5.583460     0.917047   -0.593893   -0.619641
            30    0       7.186670      8.175920      6.797440     1.101423   -0.667206   -0.217526
            31    0       7.505960      5.739630      9.614890    -0.514401    3.462559    1.052919
            32    0       4.949630      6.427840      7.716390     1.251609   -0.569571   -0.355705
            33    1       0.392070      1.588110     10.290770    -0.905398   -0.888743    1.828373
            34    1       4.096330      3.226060      9.971700     0.581841   -0.426085    0.845127
            35    1       2.334510      2.768890      4.729500    -2.708847    1.240194   -0.234240
            36    1       4.919150      2.679820      2.377420    -0.412369    2.558136   -0.481360
            37    1       4.511610      1.032120      4.506490    -1.113053   -0.590446    2.525062
            38    1      10.361390      2.792960      2.593450     1.399962   -2.830261   -4.669507
            39    1       2.579230      0.852290      2.617300    -0.698396    0.050477   -1.533200
            40    1       1.617830      2.879080      9.095780     0.679865    0.808888   -0.491518
            41    1       3.257400      5.057600      7.759520     0.043832   -0.441270    1.615679
            42    1       3.492290      1.702140      7.656940     0.721406   -0.264801   -1.070481
            43    1       0.761320      9.327780      0.186300    -0.153042    0.239222   -0.137535
            44    1       2.485580      7.939020      3.933630    -0.958809    0.168543   -0.614917
            45    1       0.129620      9.935360      2.999530     0.115112   -0.375920    0.277227
            46    1       4.607460      9.074500      2.724920     0.233871   -0.369468   -2.391545
            47    1       0.544740      7.063360      6.378170     0.051159   -1.609358    0.672280
            48    1       3.127540      5.792220      5.207220     0.472907   -0.523148   -1.000884
            49    1       2.948190      9.321640      7.212930    -0.317062    1.106061    0.446216
            50    1       0.627180      5.151380      9.433970    -0.839997   -1.562504    0.935928
            51    1       2.639500      7.410130     10.209000    -0.203191   -1.025774    0.381462
            52    1       6.953150      3.609540      4.351540    -0.078473    1.439872   -0.280133
            53    1       7.127400      0.654540      2.832700     1.990959   -0.036894   -3.012172
            54    1       9.623380      1.770440      5.103440    -0.794348   -4.180039    2.351399
            55    1       6.138940      1.682940      6.375770     0.317189    0.508586    2.108309
            56    1      10.176600      3.943300      7.156150    -2.735285   -0.082678   -0.122192
            57    1       7.567820      3.857170      8.767540    -0.378387   -1.376739   -0.023361
            58    1       7.451790      7.807260      0.180000    -0.555420    0.577239    1.588650
            59    1       7.324330      5.797080      2.430970     0.119400    2.495136   -0.716728
            60    1       8.036510      8.949310      4.376190     0.454024   -4.181981    0.002005
            61    1       9.713380      5.920260      4.012050     1.292922    1.074485   -1.246783
            62    1       8.320710     10.224200      6.845790    -0.029143   -0.722549    0.127021
            63    1       5.181490      5.756700     10.174600     0.236995    1.194872   -0.295955
            64    1       8.813530      7.315180      8.134300    -0.226805   -0.320256   -1.306051
            65    1       5.800800      8.821520      8.479900    -1.783331   -3.284487   -1.649233
 Energy
       -746.488280920000
 PlusStress:  xx          yy          zz          yz          xz          xy
         3.31313    15.21782     2.50844    -2.56964    13.27928    -3.86847
 Feature   EFS_by	VASP
END_CFG

BEGIN_CFG
 Size
    65
 Supercell
        10.601300      0.000000      0.000000
         0.000000     10.601300      0.000000
         0.000000      0.000000     10.601300
 AtomData:  id type       cartes_x      cartes_y      cartes_z           fx          fy          fz
             1    0       2.474610      2.731590      0.196900     0.358621   -0.218086    0.527924
             2    0       2.125330      0.160630      2.970500     0.135693    0.657847    0.127045
             3    0       4.623120      2.629390      4.726200    -1.243924   -0.092308   -1.062327
             4    0       2.002460      3.288970      6.671840     5.093506   -0.782968   -1.864632
             5    0      10.267790      2.369060      4.915410     1.743250   -1.431311   -0.593955
             6    0      10.427460     10.511580      7.729500     0.870244   -0.224551   -0.240896
             7    0       2.872920      6.996420      1.828220     1.771077    6.675234    0.076566
             8    0       1.299400      9.409340     10.406160     3.689235    2.133541    0.645439
             9    0       0.429280      8.370920      4.631920     0.411473    3.419231   -0.181436
            10    0       1.383080      5.173740      4.152650     1.754082   -0.692068   -3.870216
            11    0       1.177910      6.539700      7.364630     3.032730    2.871104    2.606229
            12    0       4.530080      6.512900      4.871660    -0.880615    0.545486    0.820480
            13    0       4.148040      8.040990      8.202900     0.751362   -1.831836    0.527530
            14    0       3.061960      5.399100     10.165800     0.607373    0.377980   -1.495529
            15    0       6.169770      1.321190      0.218480    -1.771113    0.720867   -0.583919
            16    0       9.730180      1.080710      1.817480     1.128204   -1.774553   -0.251398
            17    0       7.936040      2.143700      4.214370    -1.765081   -1.284130   -2.601692