BEGIN_CFG
 Size
    65
 Supercell
        10.011600      0.000000      0.000000
         0.000000     10.011600      0.000000
         0.000000      0.000000     10.011600
 AtomData:  id type       cartes_x      cartes_y      cartes_z           fx          fy          fz
             1    0       2.246580      2.795760      2.205710     1.975088   -1.534995   -0.759317
             2    0       9.936030      9.938370      1.924100     0.569877    0.522313    1.483398
             3    0       2.557190      0.421090      4.887200    -0.879782   -1.786295   -3.549498
             4    0       4.568250      2.907410      4.669420     2.320672   -1.319620   -0.182904
             5    0       9.926960      2.512940      4.488980    -1.187870   -0.692123   -0.885067
             6    0       2.424700      2.579810      7.055280     1.471426    3.098509    1.262014
             7    0       9.945030      0.089870      6.960720    -0.864474    0.006164   -0.284346
             8    0       4.670000      9.940310      7.294180     1.911229    3.440226   -1.664196
             9    0       0.001650      2.653870      9.659150    -0.883721   -0.488556   -0.135005
            10    0       4.803400      2.353990      9.695750     0.341431    1.565896    0.334273
            11    0       2.101480      0.355850      9.610800    -0.272560    0.256926    0.232815
            12    0       2.185200      7.588940      2.282240     0.446247    0.663989   -1.550413
            13    0       0.129390      5.039160      2.056460    -2.612851    1.029917   -0.620245
            14    0       2.295770      5.182800      4.712670     2.345780    0.925523    1.354550
            15    0       4.756950      7.642910      4.670620    -0.475165    0.157623   -0.578899
            16    0       0.162650      7.299890      4.496910    -1.111084    1.877531   -0.429257
            17    0       2.112650      7.671100      7.315380     4.527450    0.420448   -3.101763
            18    0      10.000690      5.112890      6.922370     0.390042   -0.056318   -0.118441
            19    0       2.284930      5.053910      9.705100     1.724413   -0.179983   -0.516698
            20    0       0.304170      7.267580      8.714180    -3.278503    1.258570    2.735026
            21    0       4.397760      7.528970      9.597980     0.600151   -0.898461    0.081358
            22    0       7.082220      2.842650      1.899110     2.799713   -1.619962   -4.321565
            23    0       4.848400      0.062090      2.332260    -0.629252    1.328560   -0.454949
            24    0       7.344240      0.014150      4.591370     0.217846    1.921558   -0.100906
            25    0       7.043550      2.406460      7.184170     1.944224   -0.203023    0.947339
            26    0       4.987260      5.277110      2.034170    -1.112712   -0.078894   -0.243584
            27    0       7.332440      7.921540      1.883200     1.056883   -1.968766   -0.393060
            28    0       7.055540      5.194010      4.361380     1.079351   -0.096162   -0.212755
            29    0       5.173080      5.105550      7.250520    -1.736210    0.494548   -0.837993
            30    0       7.035880      7.515470      6.903690    -1.968263   -0.166210    1.459209
            31    0       7.729070      5.288800      9.462680    -2.109288   -1.192678    1.457257
            32    0       7.565620      9.667040      9.713210    -1.549070    1.115191   -1.453993
            33    1       0.080000      2.112940      2.212360    -0.533953    1.597863   -1.237842
            34    1       2.419970      0.509440      2.057940     0.312906   -0.811286    0.204461
            35    1       2.186290      2.937900      4.564930     1.504676   -1.466235    0.130969
            36    1       0.200330      4.610950      4.569820    -2.414574    2.922197   -1.031674
            37    1       0.227730      0.268030      4.265350    -0.074796   -1.270728    0.253381
            38    1       0.510810      2.957610      6.489870    -1.785162   -0.089544    2.951703
            39    1       2.401250      0.473580      7.127160    -1.346354   -2.548829    0.981862
            40    1       2.385420      2.680330      9.866430     0.692499    0.273786   -1.073013
            41    1       9.982900      4.974280      9.310860    -0.177654   -0.479013    1.258878
            42    1       4.793630      2.812550      7.470490     0.016596   -0.860452   -0.820329
            43    1       2.383950      5.163500      2.557570     0.652810    0.407345   -2.383981
            44    1       2.365550      7.909860      4.507840     0.832664   -0.551387    1.547952
            45    1       4.662740      5.255960      4.812780     1.047788    0.112256   -1.477604
            46    1       3.028850      5.202200      6.822880    -2.008825   -0.297240    1.876666
            47    1       4.523880      7.855940      7.008660     0.077780   -1.960388    0.048326
            48    1       2.321320      8.372930      9.941700     0.420651   -2.095575   -0.104906
            49    1       4.886610      5.005960      9.419970    -0.056267    0.012472    1.303825
            50    1       7.536370      0.448250      1.980810    -0.711529   -1.221608    0.844596
            51    1       7.393090      2.883840      3.715780     0.876954    0.679943    5.328582
            52    1       5.137680      2.516200      2.444550    -3.558792   -0.014712   -0.464571
            53    1       8.506650      1.455600      5.791280    -0.910257   -0.341997    1.274536
            54    1       5.082450      0.155090      5.114040    -0.557379    0.118632   -1.707729
            55    1       7.741990      2.426680      9.573090    -0.536453    0.253452   -0.707398
            56    1       7.670060      5.240000      2.072250    -0.835592    0.508685   -0.167084
            57    1       4.874780      7.902830      1.712060    -0.490037   -0.998213    1.284310
            58    1       9.725510      7.587400      1.893230     0.735895   -0.445339    1.128435
            59    1       6.963060      8.024970      4.005320     0.107262   -1.458652    0.583736
            60    1       8.819250      7.486390      6.180760     3.628519    0.579157   -0.326419
            61    1       7.850740      5.096100      7.294560    -1.347650   -0.681853   -0.797096
            62    1       7.760170      7.476570      9.094570    -0.687538   -0.923392    0.271232
            63    1       9.626130      9.127860      9.500590     1.507060    2.365158   -0.671141
            64    1       5.110020      9.534870      9.187720    -0.573149    0.737115    3.761438
            65    1       7.001750      9.817120      7.510040     1.140884    0.146935   -1.016488
 Energy
       -773.358065290000
 PlusStress:  xx          yy          zz          yz          xz          xy
         7.28829   -15.63934     2.03906    -2.76876   -10.52607     4.35677
 Feature   EFS_by	VASP
END_CFG

BEGIN_CFG
 Size
    65
 Supercell
        10.040800      0.000000      0.000000
         0.000000     10.040800      0.000000
         0.000000      0.000000     10.040800
 AtomData:  id type       cartes_x      cartes_y      cartes_z           fx          fy          fz
             1    0       2.663980      2.762890      1.972870    -1.089447    1.463566    0.804406
             2    0       4.827960      2.520410      4.500300    -1.091090   -0.419114    0.618044
             3    0       9.983770      2.383940      4.673730     0.699052    0.654251   -0.254074
             4    0       2.190450      0.054660      4.683380     1.155101    0.341556    1.470181
             5    0       4.747300      0.205150      7.260890    -0.509472   -0.852442   -1.293627
             6    0       2.428220      0.475010      9.512810    -0.102698   -3.356092   -3.064222
             7    0       2.239660      2.612430      7.314680     0.970550    0.244213   -2.530849
             8    0       0.089600      5.146090      2.334430     0.062594   -0.966330   -0.895344
             9    0       2.555260      7.598690      2.469100     0.510176   -1.365447   -1.977789
            10    0       2.269480      5.511020      5.241960     1.283548   -1.784612   -1.833808
            11    0       2.477520      5.411200      9.775330    -0.874779   -1.769755   -0.555810
            12    0       2.233470      7.607960      7.679760     0.303312    0.472184   -3.291580
            13    0       0.016810      7.956110      9.401360    -1.366272   -1.285197    0.910722
            14    0       7.744960      2.471000      2.358420    -1.318306    0.003175   -3.251329
            15    0       5.079310      0.142370      2.182160    -2.029828   -0.539988   -0.797591
            16    0       9.840420      0.481990      1.860630     1.013572   -2.161185    0.417990
            17    0       7.684550      2.455900      6.913600    -2.349622    0.045689    0.439675
            18    0       9.663410      9.984700      6.918170     0.334109    3.191134   -0.009796
            19    0       4.878410      2.785060      9.397480     1.424605   -0.176444    2.341800
            20    0       7.279270      0.163360      9.720420     1.202307    0.210477   -1.884260
            21    0       9.897380      2.708360      9.346300    -0.603086   -0.039279    2.349639
            22    0       7.737270      7.274460      1.870760    -1.695214    0.473247   -0.595792
            23    0       5.203610      5.028500      1.973130    -1.439162    1.153022    0.106145
            24    0       7.000410      4.886570      4.753160     2.412800    0.658242   -0.002997
            25    0       7.362510      9.651600      4.065610    -0.429307    1.722403    3.213676
            26    0       9.807630      7.367690      4.483230     1.371534    1.239564    2.327378
            27    0       5.003100      7.537630      4.773580    -1.350092    0.127561   -0.675425
            28    0       9.686110      5.226980      6.910190     0.357202   -0.592645    2.230667
            29    0       7.299440      7.467810      6.786830    -0.301254    1.248148    1.391900
            30    0       4.847260      4.732670      7.036880    -0.014988    3.305385    1.319191
            31    0       7.525120      4.994470      9.564670     0.520483    0.852923   -0.460309
            32    0       5.044190      7.708710      9.537730    -0.060049   -0.326517    1.188659
            33    1       2.390320      0.551130      1.465530    -0.782024    3.086330   -1.545280
            34    1       0.123940      2.756010      2.046760     0.277570    0.273646    0.126415
            35    1       4.528940      0.086370      4.536550     0.414112    0.030999    0.604464
            36    1       4.839420      2.596510      7.134210     0.040554   -1.514092   -1.295592
            37    1       2.437780      2.485560      4.780620    -0.247757   -0.108913   -0.359708
            38    1       2.299740      9.924690      7.176820    -0.331048    0.806572   -0.558320
            39    1       2.308150      2.641560      9.555220     0.710693    2.221954    1.305626
            40    1       9.963410      0.375660      9.259810    -0.327993   -0.011023    1.138071
            41    1       2.869320      5.286380      1.927250    -0.940490   -0.295550    0.353119
            42    1       9.834700      7.890790      2.535530     0.783194   -0.719197   -3.465552
            43    1       2.452570      7.774590      9.860960     0.847709    0.396716    1.010780
            44    1       2.415160      7.876080      4.845360    -0.064284   -0.710677   -0.090616
            45    1       4.671710      4.943030      4.603180     0.193522    0.407625    0.305279
            46    1       2.548510      9.807230      2.421710     0.285988   -2.728303    4.439747
            47    1       9.892930      5.610860      0.014600     0.304340   -0.619187    0.044912
            48    1       1.970000      5.023570      7.517130     0.881392    0.098442   -0.595733
            49    1       5.305190      2.780990      1.820220    -0.996814   -0.893349    1.081425
            50    1       9.586420      9.575540      4.459570     0.370203    2.246369    0.530501
            51    1       7.383030      2.578570      4.372200    -0.098330   -0.742182    2.426859
            52    1       9.807370      5.116260      4.795070     0.005121   -1.868169   -1.198984
            53    1       7.373750      4.566590      2.660370     1.165647    1.532022   -2.030824
            54    1       0.010800      2.511990      7.136450    -0.952318    0.633630   -1.227710
            55    1       6.718950      0.342870      6.781250     2.632342   -0.426125    0.317297
            56    1       7.547910      2.586420      9.672930    -0.372113   -0.014577   -0.756050
            57    1       4.902780      0.238310      9.676550     0.269968    0.244351    0.092639
            58    1       5.080050      7.503520      1.800480    -0.144494    0.169875    0.770721
            59    1       7.285460      9.718720      1.877570     1.383070    0.589314   -0.467253
            60    1       7.569730      7.236980      4.202920    -1.188657    0.680185    0.638032
            61    1       9.892840      8.027350      6.745600    -0.470480   -3.268983    1.340170
            62    1       4.526970      7.416520      7.363880     0.942002    0.748100   -0.829349
            63    1       7.239450      5.255710      7.240730     0.026709   -1.055656   -0.102849
            64    1       5.016010      5.461860      9.623180    -0.149109   -1.309558    0.060251
            65    1       7.865260      7.531570      9.320700    -1.464501    0.347722    0.182043
 Energy
       -777.333495460000
 PlusStress:  xx          yy          zz          yz          xz          xy
       -50.28093   -33.91144   -10.89576     1.17378     4.21142    -1.61746
 Feature   EFS_by	VASP
END_CFG

BEGIN_CFG
 Size
    65
 Supercell
         9.998270      0.000000      0.000000
         0.000000      9.998270      0.000000
         0.000000      0.000000      9.998270
 AtomData:  id type       cartes_x      cartes_y      cartes_z           fx          fy          fz
             1    0       0.081550      0.448810      2.324020     0.138429   -1.224311   -1.671923
             2    0       2.652200      2.290100      2.534210    -0.788217    1.668150   -2.024790
             3    0       1.947460      0.294060      4.738540     3.434611   -0.539208    0.444438
             4    0       2.400500      2.529760      7.316050    -2.297981    0.504685   -1.087827
             5    0       4.700880      4.844410      6.958250    -0.024595    0.555651   -1.599664
             6    0       2.457970      0.258870      9.261360    -0.051093   -1.214821    3.683771
             7    0       2.466770      4.610990      9.690630    -0.357721    1.627571    0.127553
             8    0       9.879310      2.541840      9.704640    -0.001472    1.207391    0.356159
             9    0       2.189190      7.743290      1.884640     2.159141   -0.180022    1.766409
            10    0       4.579560      5.238800      1.840300     1.421562   -1.041388    0.765073
            11    0       0.010410      5.162740      1.853590    -1.706116   -0.396394    0.616242
            12    0       2.022000      5.057420      4.671140     0.166369    1.792909   -0.322375
            13    0       2.077130      7.803850      6.974670     2.516089   -1.717649   -0.373656
            14    0       0.083820      8.102450      9.630330    -1.116304   -1.969412   -1.098765
            15    0       7.281150      2.565190      2.003150     1.437604    1.363188   -0.101550
            16    0       7.534130      0.044280      0.039450    -0.804448    0.805565   -2.383853
            17    0       4.944210      0.027310      2.172780     0.608231    0.313453   -3.223328
            18    0       7.445770      0.453180      4.507680     0.088095   -3.833359    1.679050
            19    0       9.591000      2.659210      4.779850     3.670512    1.546595   -0.689092
            20    0       5.172330      2.588870      4.850250    -1.954950   -0.692503   -1.497952
            21    0       7.261840      2.443120      7.148460     0.245455    1.864919    0.452663
            22    0       9.618570      0.618780      7.050270     0.564135   -2.017263    0.786288
            23    0       5.038630      0.214240      7.194920    -1.008000   -1.684123   -0.659968
            24    0       4.885140      2.217890      9.654950     0.328480    1.666908    0.733716
            25    0       7.465180      7.604890      2.012800    -0.032425    0.774807    0.112661
            26    0       9.545640      7.584040      4.440620     1.093878    0.395011    0.427520
            27    0       7.392420      5.237590      4.360690    -1.383025   -0.404421    0.825517
            28    0       4.895610      7.880230      4.423180    -0.849804   -2.946443    1.298155
            29    0       7.118520      7.245070      7.187030     1.311023    2.490352   -0.696734
            30    0       9.764120      5.206900      7.217440     0.547473   -2.400962    0.303552
            31    0       7.334450      5.097290      9.102260    -0.036809    0.680783    3.153010
            32    0       4.896490      7.568050      9.399000    -1.404878   -0.102802    1.258049
            33    1       2.811520      0.154950      1.783950    -1.372467   -1.000993    1.003609
            34    1       2.165460      2.219240      0.169990     1.014125    1.797229   -1.131808
            35    1       0.198420      0.293790      9.943190    -1.226328    0.286333   -0.935974
            36    1       4.374430      4.816530      4.803070    -4.429252   -7.784111    2.858269
            37    1       2.362670      3.002760      4.708800    -0.565021   -2.239255    0.820396
            38    1       9.891860      0.062680      4.538170    -2.161560    0.476578    1.149058
            39    1       2.509920      9.903960      7.092960    -0.502190    1.979676   -1.194132
            40    1       4.534460      2.404740      7.298180     2.085831    0.953305   -0.790515
            41    1       2.229290      5.164660      2.024630     0.368955   -0.113686    0.824613
            42    1       4.486580      7.451950      1.971400     1.111974    0.840789   -0.238078
            43    1       9.992600      7.989420      1.845960    -1.291302   -0.941480    1.688320
            44    1       2.680040      7.616310      4.634130    -1.352374    0.419344    0.134961
            45    1       4.855600      7.950500      7.065580     0.071235   -0.932762   -0.456302
            46    1       2.573970      7.578870      9.777400    -0.423780    0.488773   -1.649419
            47    1       0.083660      7.182990      7.431760    -1.375277    2.602546   -0.788524
            48    1       2.020490      5.085750      7.693360     1.052110   -0.131143   -2.272419
            49    1       7.804200      0.096420      2.329720    -1.036094    0.807530   -0.403002
            50    1       7.513760      2.676610      4.595260    -2.072194    1.683216   -0.329515
            51    1       5.220680      2.749500      2.359340    -1.685133   -0.684786   -0.166380
            52    1       9.793910      2.713210      2.442880     0.310540    0.287775   -0.905307
            53    1       9.676440      2.938120      7.235070     0.387552   -0.798240    0.176005
            54    1       7.179470      0.133950      7.222750     1.187562   -0.395621    0.097551
            55    1       7.586470      2.960420      9.669600    -1.033777   -0.909386   -0.370071
            56    1       7.212530      5.592810      1.532150    -0.081791   -1.659570    0.606284
            57    1       4.929240      5.726900      4.282210     4.809283    7.016761   -4.660853
            58    1       5.225220      9.831890      4.245170    -0.194882    3.316763    2.593242
            59    1       9.463370      5.172480      4.686300     1.890207   -0.588734   -0.442746
            60    1       7.392610      4.962310      6.838100    -1.300942   -0.134812   -0.880471
            61    1       7.268140      7.849390      4.937270     0.320210   -0.627410   -0.885669
            62    1       4.919320      4.942490      8.831380    -0.158572    0.214404    5.009820
            63    1       7.115680      7.931340      9.684390     1.172120   -1.069030   -0.226660
            64    1       9.833420      5.321570      9.516580     0.130509   -0.938992    0.699834
            65    1       4.908150      9.791990      9.616910     0.437475    0.886132   -0.292469
 Energy
       -774.905325490000
 PlusStress:  xx          yy          zz          yz          xz          xy
         0.26572    12.07270    -7.74239    -2.92846    -3.99658     4.13173
 Feature   EFS_by	VASP
END_CFG

BEGIN_CFG
 Size
    65
 Supercell
         9.962720      0.000000      0.000000
         0.000000      9.962720      0.000000
         0.000000      0.000000      9.962720
 AtomData:  id type       cartes_x      cartes_y      cartes_z           fx          fy          fz
             1    0       0.045710      0.071390      2.375990     0.187099   -0.045503   -3.019042
             2    0       4.873670      0.473310      2.200780     0.877433   -1.715586   -0.549368
             3    0       2.585250      2.402770      2.002480    -1.208895    1.054760    2.015751
             4    0       0.078050      4.705870      1.997300    -0.535026    3.095327    1.931331
             5    0       2.624680      9.914050      4.657020    -0.779542    0.858506   -0.293894
             6    0       2.269540      2.543910      7.163270    -0.037498    0.427346    0.184126
             7    0       9.942310      9.935480      6.801030    -0.811172    1.339151    1.007565
             8    0       4.458570      0.010090      7.389830     3.032506   -0.668284   -1.098272
             9    0       4.578200      2.888420      5.018250     0.511695   -2.400336   -2.087335
            10    0       2.204270      0.286950      9.721650     2.565704   -0.580373   -0.571304
            11    0       4.982750      2.892460      9.385550     0.952853   -1.787309    0.278074
            12    0       9.724130      2.297490      9.151120     1.265312    1.007254    1.471380
            13    0       2.580000      7.453390      2.052700     0.012581    0.977702    0.307239
            14    0       4.758370      4.987260      1.645070     0.006427    0.275017    3.182451
            15    0       4.636620      7.738690      9.873560     1.377353    0.634643   -1.439453
            16    0       0.045980      7.415090      4.456910     0.544670   -0.761716    0.380099
            17    0       2.389980      5.130490      4.531700     0.049783   -0.345909   -0.023983
            18    0       1.977320      7.540850      7.284640     4.546516    0.954019   -1.795759
            19    0       4.668810      5.408530      7.327140     1.029572   -0.948698   -0.730089
            20    0       2.196270      4.936980      9.682610     2.718739   -0.108274    2.157981
            21    0       9.934630      7.704710      9.789420    -1.082885   -1.938922   -1.430720
            22    0       7.297230      2.713370      2.138380     1.990012   -2.053833    1.476190
            23    0       9.786240      2.499240      4.633840     0.029582    0.090577   -2.601894
            24    0       7.049700      2.609910      7.377940     1.543659   -0.337256   -1.284519
            25    0       7.848160      7.194260      2.075800    -1.887107    0.542664    0.002256
            26    0       7.312220      4.949540      4.432560     0.981526   -0.330639    1.158007
            27    0       4.984180      7.361890      4.449580     0.286929    0.778862    0.856105
            28    0       7.457950      9.721220      4.661530    -1.599587    1.938136   -0.327714
            29    0       7.507590      7.803350      6.859120    -1.089380   -2.029756    1.677882
            30    0       9.630360      4.880660      6.989040     0.858394    0.930190    0.633677
            31    0       7.568960      0.000060      9.702970    -0.931478    0.797891   -0.813538
            32    0       7.542980      5.305190      9.743320     0.668719    0.083030   -3.265362
            33    1       9.811590      2.724790      1.987450     0.398081   -2.820172    0.495588
            34    1       5.146830      2.641270      1.564030    -1.454763    0.600999    2.077991
            35    1       2.381510      4.988630      2.131780     0.464916   -0.425771    0.474208
            36    1       2.447700      0.028710      2.145140     0.374117   -0.351306    0.835513
            37    1       2.114130      2.306080      4.166380     0.719756    0.790061    1.633134
            38    1       4.751380      2.706860      7.153390    -0.623926   -0.359983    0.203581
            39    1       4.886330      9.735050      5.036510    -0.367448    0.259187   -1.092671
            40    1       2.862880      2.612030      9.867030    -1.058079    0.236463   -2.155760
            41    1       0.428920      7.259300      1.852650    -1.400750    0.353279    2.466239
            42    1       2.702240      7.701950      4.484860    -0.607132   -1.119957    0.170467
            43    1       5.013670      4.943350      4.752800    -0.736889    1.327379   -0.358110
            44    1       0.012550      9.894940      4.427830    -0.037883    0.351168    1.508850
            45    1       2.202130      0.082880      7.284810     0.344600    0.285554   -1.171539
            46    1       1.896350      5.492950      7.856570     0.309751   -1.047263   -4.395613
            47    1       4.892640      7.485660      7.042850    -0.164397    0.796202    0.332100
            48    1       2.193890      7.818060      9.580590     0.791284   -0.763733    0.873495
            49    1       5.211160      5.456660      9.548060    -0.579572    0.363618   -0.447655
            50    1       7.596540      0.576930      2.127490    -0.371090    7.377286    0.713103
            51    1       7.366560      2.449640      4.637690    -0.384785    0.265897    0.594095
            52    1       9.770500      2.525620      6.678250    -0.271106   -0.230744    2.403720
            53    1       6.870160      9.828090      7.168890     0.865792    1.098593    0.551855
            54    1       7.800680      2.662530      0.008110    -1.480507    0.177789   -1.868899
            55    1       0.342180      9.667770      9.140570    -3.200144    2.404437    0.658442
            56    1       0.142480      4.887980      9.758590    -2.595133   -0.128831   -1.086420
            57    1       5.485320      0.708160      9.948690    -1.133065   -2.113375   -0.863028
            58    1       7.188360      4.721690      1.759730     0.342290    2.327886    2.307669
            59    1       7.562790      9.341070      2.117220    -0.361965   -7.869985    0.254626
            60    1       7.579990      7.296020      4.461000    -0.251069    0.221090    0.051651
            61    1       5.082330      7.242170      2.034980     0.063843    0.624039    0.476760
            62    1       0.005760      4.998510      4.584640    -0.480422   -0.512844   -0.048529
            63    1       7.420560      7.767530      9.650320    -0.299884   -0.662880   -0.620620
            64    1       7.444390      4.984750      7.492910    -0.619001    0.554236   -1.102659
            65    1       9.917880      7.756750      7.371430    -2.269914   -1.740997   -1.259454
 Energy
       -776.643946850000
 PlusStress:  xx          yy          zz          yz          xz          xy
        -3.38191    21.40769    11.06783    -6.72994     5.32532     4.39025
 Feature   EFS_by	VASP
END_CFG

BEGIN_CFG
 Size
    65
 Supercell
         9.967310      0.000000      0.000000
         0.000000      9.967310      0.000000
         0.000000      0.000000      9.967310
 AtomData:  id type       cartes_x      cartes_y      cartes_z           fx          fy          fz
             1    0       2.384290      2.450910      2.082580    -2.961677    0.267880    0.827395
             2    0       4.633810      4.762470      2.250870     2.511265    4.103741   -1.133596
             3    0       0.112130      0.068070      2.296110     0.479454    0.441335   -0.602188
             4    0       4.695760      0.084590      1.893550     2.059667    0.502885    3.470637
             5    0       2.284930      2.476770      6.864000    -0.268983   -0.351706    1.218104
             6    0       2.505820      0.473860      5.073980    -0.028270   -2.353289   -2.076950
             7    0       4.637680      2.491870      9.578720     1.036873    0.575753   -0.209026
             8    0       2.375680      0.019950      9.352510     0.376917    1.770375    0.930050
             9    0       2.393700      7.551020      2.559470     4.672592   -0.006907   -2.189045
            10    0       0.006810      7.612190      4.446360    -0.941381   -0.798777    1.966710
            11    0       2.383210      5.175350      4.693490     0.355632   -3.489656   -0.699696
            12    0       2.483180      7.380720      6.963850    -0.462791   -0.497019    2.205462
            13    0       0.029100      7.673390      9.645010    -0.814244   -0.893870   -0.277478
            14    0       2.153840      5.134290      9.744020     0.353497   -0.272071   -0.752831
            15    0       4.566650      7.406800      9.505660     0.906227   -0.937076    1.642050
            16    0       7.514830      2.470640      1.685780    -0.349017   -0.561598    2.495456
            17    0       9.508110      2.666730      9.914260     1.217444    0.060314   -2.344627