BEGIN_CFG
 Size
    65
 Supercell
        10.008155      0.000000      0.000000
         0.000000     10.008155      0.000000
         0.000000      0.000000     10.008155
 AtomData:  id type       cartes_x      cartes_y      cartes_z
             1    1       2.119813      0.872700      2.032596
             2    0       2.309662      2.889422      2.223872
             3    0       4.645610      0.112333      2.176141
             4    1      -0.076947      2.990395      2.218206
             5    0       2.145433      0.037536     -0.132701
             6    1       2.586355      3.028862     -0.054141
             7    0       2.362224      4.732866      4.390985
             8    1      -0.067221      0.023256      4.555424
             9    0       4.808870      2.519816      4.857960
            10    1       4.420329      0.214660      4.565264
            11    1       1.774582      2.457701      5.255612
            12    1       4.464711      2.664708      7.251238
            13    0       4.887932     -0.065750      6.978005
            14    0       2.423164      0.088871      5.199441
            15    1       0.170034      0.244002      9.543170
            16    0       2.054194      2.238780      7.496346
            17    1       2.244278      0.241139      7.810225
            18    0       2.636101      7.374406      2.232342
            19    1       2.883357      5.167572      2.092352
            20    1       0.023686      7.977010      1.838811
            21    0       0.107376      5.459639      2.076408
            22    0      -0.095581      7.567663      4.365874
            23    1       3.060297      8.062446      3.941383
            24    0       2.150243      7.245036      7.075850
            25    0       4.733051      5.015423      7.360930
            26    1       4.381161      7.717343      6.881812
            27    0      -0.017219      9.699240      6.843339
            28    1       1.850306      6.971546      5.070344
            29    1       2.345992      7.210682      9.745351
            30    1       0.384528      5.156658      9.693110
            31    0       0.164191      7.565817      9.649706
            32    0       4.806018      7.973283      9.432066
            33    0       2.673827      5.238634      9.786585
            34    0      -0.156195      5.136739      7.515320
            35    1       2.063371      5.027226      7.450944
            36    1       7.276986      2.606624     -0.281734
            37    0       9.643316      0.409839      1.794898
            38    1       5.258703      2.606728      2.142658
            39    1       7.484408      0.672091      1.848281
            40    0       7.418335      2.868760      2.223337
            41    1       4.841033     -0.035768     -0.312537
            42    1       7.316128      2.468172      4.568794
            43    0       6.905495      0.168730      4.526372
            44    0       9.699564      2.229127      4.857615
            45    0       7.570787      2.786007      7.118484
            46    1       7.421500      0.340245      6.837297
            47    1       9.705164      2.612547      7.510806
            48    0       9.769300      2.774733      9.871295
            49    0       7.389326      0.496313      9.552562
            50    0       4.941260      2.668948      9.485008
            51    0       5.277845      5.195269      2.196810
            52    1       5.190657      7.869078      2.009519
            53    1       7.702702      5.193713      2.261827
            54    0       7.368922      7.833552      1.781041
            55    1       5.170058      5.706527      0.146361
            56    1       7.155369      7.915159      4.406930
            57    0       7.339251      5.028503      4.736100
            58    1       9.549969      5.128344      4.578394
            59    0       5.045579      7.581722      4.719881
            60    1       7.109924      5.115057      7.005072
            61    1       9.822401      7.756109      6.779548
            62    0       7.530030      7.546443      6.739142
            63    1       5.065671      5.414858      5.063947
            64    1       7.228230      7.610094      9.710726
            65    0       7.535945      5.462407      9.503568
 Feature   MV_grade	1.202438
 Feature   ind	2452
END_CFG

BEGIN_CFG
 Size
    65
 Supercell
        10.008769      0.000000      0.000000
         0.000000     10.008769      0.000000
         0.000000      0.000000     10.008769
 AtomData:  id type       cartes_x      cartes_y      cartes_z
             1    1       2.115426      0.871078      2.022107
             2    0       2.308209      2.887330      2.227022
             3    0       4.643652      0.109638      2.176037
             4    1      -0.076074      2.986958      2.227546
             5    0       2.145380      0.040759     -0.132920
             6    1       2.574167      3.023857     -0.061138
             7    0       2.360329      4.730427      4.391436
             8    1      -0.088260      0.024430      4.553428
             9    0       4.813476      2.528848      4.860212
            10    1       4.420140      0.222956      4.573094
            11    1       1.780154      2.447844      5.245593
            12    1       4.448353      2.686124      7.244711
            13    0       4.893739     -0.067074      6.977967
            14    0       2.420887      0.084757      5.200255
            15    1       0.173990      0.250747      9.536615
            16    0       2.049516      2.235928      7.495407
            17    1       2.248971      0.244199      7.810961
            18    0       2.642709      7.372780      2.230554
            19    1       2.881772      5.179828      2.095443
            20    1       0.024939      7.953986      1.832888
            21    0       0.109510      5.459098      2.078650
            22    0      -0.099051      7.566592      4.368035
            23    1       3.053979      8.044497      3.941068
            24    0       2.149810      7.244497      7.077872
            25    0       4.739557      5.014931      7.363889
            26    1       4.391617      7.721494      6.895484
            27    0      -0.018889      9.699973      6.845741
            28    1       1.870039      6.960149      5.068616
            29    1       2.343797      7.203281      9.748404
            30    1       0.370915      5.155497      9.687417
            31    0       0.163607      7.569811      9.648092
            32    0       4.804906      7.971192      9.427691
            33    0       2.674049      5.239901      9.783459
            34    0      -0.161369      5.133990      7.519436
            35    1       2.060292      5.009794      7.450852
            36    1       7.245925      2.587793     -0.300235
            37    0       9.639383      0.409895      1.794794
            38    1       5.268357      2.621347      2.177124
            39    1       7.476122      0.684954      1.868204
            40    0       7.415369      2.871612      2.218486
            41    1       4.835735     -0.026812     -0.335496
            42    1       7.293977      2.486793      4.579252
            43    0       6.906654      0.169559      4.526904
            44    0       9.698157      2.231972      4.858181
            45    0       7.573851      2.784823      7.121738
            46    1       7.425750      0.324678      6.824414
            47    1       9.708637      2.632044      7.525663
            48    0       9.765756      2.769497      9.873095
            49    0       7.388653      0.492176      9.547462
            50    0       4.935542      2.666382      9.486989
            51    0       5.278864      5.193560      2.195471
            52    1       5.192316      7.887843      2.009209
            53    1       7.706613      5.194761      2.251661
            54    0       7.368097      7.836118      1.783037
            55    1       5.171316      5.706192      0.150022
            56    1       7.173987      7.926661      4.397815
            57    0       7.344049      5.027918      4.737858
            58    1       9.557058      5.107950      4.568828
            59    0       5.045682      7.587386      4.714111
            60    1       7.089725      5.121910      6.993318
            61    1       9.822406      7.749301      6.771444
            62    0       7.536941      7.548191      6.736250
            63    1       5.071508      5.426878      5.071510
            64    1       7.209278      7.629127      9.707897
            65    0       7.541164      5.463807      9.504735
 Feature   MV_grade	1.200331
 Feature   ind	2453
END_CFG

BEGIN_CFG
 Size
    65
 Supercell
        10.067034      0.000000      0.000000
         0.000000     10.067034      0.000000
         0.000000      0.000000     10.067034
 AtomData:  id type       cartes_x      cartes_y      cartes_z
             1    0       2.636279      4.623378     -0.132100
             2    0       2.145230      2.501434      2.241228
             3    1       4.346879      2.319622      2.347326
             4    1       1.867543      0.042326      2.140618
             5    0       4.791193     -0.072905      2.443967
             6    0       4.756546      2.906620      4.813848
             7    0       2.335831      0.090598      4.642538
             8    1       2.135766      2.665647      4.660741
             9    1       4.791141      0.624372      4.774348
            10    1      -0.160817      2.969987      2.564069
            11    0       2.404751      2.334324      7.042728
            12    0      -0.050230      0.291511      6.880838
            13    1       1.961907      0.003242      7.191867
            14    0       4.787696     -0.080644      7.122106
            15    1       2.579629      4.800053      7.165035
            16    0       4.606099      4.672922      7.329502
            17    0       0.148726      2.751152      9.503694
            18    1       2.662391      2.563009      9.752190
            19    0       2.160271      0.208582      9.612792
            20    0       4.814792      2.179439      9.836056
            21    1      -0.150294      7.679981      1.907145
            22    1       4.402578      9.777209      0.222912
            23    1       2.503137      5.430954      2.315015
            24    0       0.064606      5.265166      2.081598
            25    1       4.794900      5.462047      0.178536
            26    0       2.285424      5.162785      4.583278
            27    0       4.636383      7.358973      4.700650
            28    1       2.397162      7.986107      4.614284
            29    0       0.103951      7.732338      4.699365
            30    1      -0.088305      5.222989      4.537782
            31    0       2.391145      7.822770      2.470271
            32    0       4.617075      5.392738      2.365298
            33    0       2.280212      7.437572      6.917140
            34    0       0.271368      5.290621      7.194652
            35    1       2.515517      7.309773      9.886107
            36    0       0.427143      7.559479      9.509684
            37    0       4.694126      7.464564      9.787851
            38    1       0.510484      5.039977      9.610524
            39    0       6.942174      2.562368      2.052682
            40    0       9.858054      0.449671      2.064686
            41    1       7.008605     -0.021730      1.826617
            42    0       7.337829      0.625551      4.699401
            43    1       7.189027      2.712475      4.413042
            44    1       7.750433      0.916566      2.503776
            45    0       9.702785      3.121975      4.775979
            46    1       9.843166      0.068786      4.756043
            47    1       7.450261      0.182604      6.943586
            48    1       9.724356      2.515105      7.177148
            49    1       6.974435      2.706039      9.614215
            50    0       7.409892      2.585611      7.448780
            51    0       7.344756     -0.048698      9.328650
            52    1       5.375689      2.106356      7.645639
            53    1       7.541931      5.686445      2.150119
            54    1       5.189656      7.636733      2.034489
            55    0       7.238972      5.162677      4.309134
            56    1       7.073683      7.685440      4.269400
            57    1       5.222575      5.031284      4.537786
            58    0       7.662092      7.740625      2.365303
            59    0       7.392671      7.379703      6.629114
            60    1       9.860322      7.753074      6.928418
            61    1       5.299840      7.544781      6.983861
            62    1       8.002373      5.224962      7.190811
            63    0       7.463255      5.184088      9.574898
            64    1       7.001074      7.872718      9.667510
            65    1       9.241208      9.861413      9.595131
 Feature   MV_grade	1.222935
 Feature   ind	6051
END_CFG

BEGIN_CFG
 Size
    65
 Supercell
        10.068593      0.000000      0.000000
         0.000000     10.068593      0.000000
         0.000000      0.000000     10.068593
 AtomData:  id type       cartes_x      cartes_y      cartes_z
             1    0       2.639468      4.618214     -0.133062
             2    0       2.143173      2.504829      2.238412
             3    1       4.324399      2.318376      2.379000
             4    1       1.869245      0.038375      2.136717
             5    0       4.791368     -0.075190      2.442935
             6    0       4.765680      2.909514      4.814619
             7    0       2.334547      0.091734      4.641446
             8    1       2.132969      2.672935      4.680140
             9    1       4.783556      0.643617      4.776216
            10    1      -0.190089      2.980927      2.565763
            11    0       2.403445      2.333529      7.037083
            12    0      -0.052716      0.293839      6.881579
            13    1       1.940803     -0.012895      7.189607
            14    0       4.786893     -0.083707      7.119607
            15    1       2.569464      4.791082      7.173870
            16    0       4.604895      4.669255      7.326289
            17    0       0.147037      2.746761      9.508142
            18    1       2.651123      2.566076      9.756929
            19    0       2.159802      0.203749      9.609599
            20    0       4.817129      2.178421      9.833123
            21    1      -0.150715      7.677485      1.921514
            22    1       4.395473      9.762835      0.216188
            23    1       2.498799      5.432597      2.330245
            24    0       0.063060      5.264766      2.082904
            25    1       4.785256      5.454134      0.202128
            26    0       2.283702      5.165575      4.585535
            27    0       4.639766      7.361457      4.703927
            28    1       2.413397      7.988022      4.601291
            29    0       0.103924      7.732592      4.699868
            30    1      -0.085705      5.225388      4.532374
            31    0       2.394066      7.818597      2.472930
            32    0       4.617401      5.389896      2.365678
            33    0       2.281154      7.434829      6.916167
            34    0       0.268149      5.298354      7.197191
            35    1       2.517083      7.298802      9.897671
            36    0       0.423074      7.560064      9.510867
            37    0       4.698148      7.464806      9.785704
            38    1       0.484762      5.044307      9.583777
            39    0       6.936350      2.560819      2.051631
            40    0       9.857444      0.451532      2.065493
            41    1       7.010762     -0.021467      1.816696
            42    0       7.333318      0.625167      4.703714
            43    1       7.202956      2.718203      4.434022
            44    1       7.737071      0.914069      2.504345
            45    0       9.700900      3.124156      4.782282
            46    1       9.836007      0.080562      4.751491
            47    1       7.451579      0.167049      6.945016
            48    1       9.723778      2.523750      7.164764
            49    1       6.973130      2.706244      9.603510
            50    0       7.409189      2.587056      7.447005
            51    0       7.346915     -0.047480      9.326568
            52    1       5.394714      2.112934      7.644809
            53    1       7.533495      5.676030      2.141611
            54    1       5.172200      7.630941      2.030717
            55    0       7.242637      5.162363      4.311303
            56    1       7.070073      7.684514      4.281972
            57    1       5.238882      5.035031      4.544602
            58    0       7.663576      7.742392      2.362865
            59    0       7.396482      7.374178      6.630281
            60    1       9.859819      7.752169      6.932534
            61    1       5.309041      7.549011      6.978945
            62    1       8.010167      5.232149      7.169587
            63    0       7.462976      5.189490      9.575043
            64    1       7.021518      7.888288      9.661364
            65    1       9.248875      9.853967      9.600186
 Feature   MV_grade	1.255413
 Feature   ind	6052
END_CFG

BEGIN_CFG
 Size
    65
 Supercell
        10.070157      0.000000      0.000000
         0.000000     10.070157      0.000000
         0.000000      0.000000     10.070157
 AtomData:  id type       cartes_x      cartes_y      cartes_z
             1    0       2.642645      4.613224     -0.134066
             2    0       2.141147      2.508246      2.235622
             3    1       4.302638      2.317491      2.410533
             4    1       1.872319      0.034772      2.132940
             5    0       4.791527     -0.077475      2.441849
             6    0       4.774777      2.912293      4.815360
             7    0       2.333267      0.092982      4.640376
             8    1       2.130420      2.680367      4.699475
             9    1       4.776114      0.662200      4.778447
            10    1      -0.219457      2.991549      2.566782
            11    0       2.402122      2.332794      7.031454
            12    0      -0.055349      0.296092      6.882394
            13    1       1.921974     -0.029543      7.187183
            14    0       4.786103     -0.086768      7.117090
            15    1       2.558425      4.782428      7.182908
            16    0       4.603786      4.665633      7.323059
            17    0       0.145296      2.742334      9.512615
            18    1       2.638612      2.567350      9.761383
            19    0       2.159353      0.198857      9.606436
            20    0       4.819504      2.177411      9.830211
            21    1      -0.150478      7.675055      1.936129
            22    1       4.388415      9.748930      0.208638
            23    1       2.493198      5.433314      2.344859
            24    0       0.061469      5.264362      2.084195
            25    1       4.776233      5.445040      0.224932
            26    0       2.282006      5.168354      4.587859
            27    0       4.643222      7.363990      4.707213
            28    1       2.429457      7.988403      4.589525
            29    0       0.103791      7.732830      4.700316
            30    1      -0.083069      5.228550      4.526946
            31    0       2.396951      7.814422      2.475418
            32    0       4.617829      5.387017      2.366025
            33    0       2.282128      7.432122      6.915268
            34    0       0.264852      5.306052      7.199718
            35    1       2.518484      7.288134      9.909066
            36    0       0.418920      7.560657      9.512077
            37    0       4.702237      7.465176      9.783531
            38    1       0.458038      5.049123      9.557162
            39    0       6.930476      2.559536      2.050495
            40    0       9.856820      0.453345      2.066307
            41    1       7.012322     -0.022519      1.806329
            42    0       7.328821      0.624650      4.708074
            43    1       7.216729      2.724974      4.455491
            44    1       7.725276      0.908852      2.505892
            45    0       9.699043      3.126233      4.788572
            46    1       9.828935      0.092722      4.746053
            47    1       7.452711      0.151257      6.946709
            48    1       9.724115      2.533158      7.152513
            49    1       6.972747      2.706605      9.593388
            50    0       7.408513      2.588545      7.445176
            51    0       7.348971     -0.046293      9.324547
            52    1       5.411851      2.119821      7.643237
            53    1       7.525189      5.664305      2.132659
            54    1       5.153900      7.625226      2.027347
            55    0       7.246463      5.162031      4.313538
            56    1       7.066478      7.683452      4.296543
            57    1       5.253309      5.039173      4.552516
            58    0       7.665009      7.744257      2.360251
            59    0       7.400336      7.368698      6.631528
            60    1       9.859657      7.751116      6.936877
            61    1       5.317080      7.553140      6.973964
            62    1       8.017576      5.239331      7.148657
            63    0       7.462701      5.194913      9.575208
            64    1       7.042183      7.903251      9.654968
            65    1       9.259254      9.846762      9.605391
 Feature   MV_grade	1.280137
 Feature   ind	6053
END_CFG

BEGIN_CFG
 Size
    65
 Supercell
        10.071722      0.000000      0.000000
         0.000000     10.071722      0.000000
         0.000000      0.000000     10.071722
 AtomData:  id type       cartes_x      cartes_y      cartes_z
             1    0       2.645801      4.608412     -0.135110
             2    0       2.139147      2.511684      2.232861
             3    1       4.281648      2.316982      2.441841
             4    1       1.876725      0.031532      2.129292
             5    0       4.791666     -0.079760      2.440709
             6    0       4.783835      2.914960      4.816074
             7    0       2.331989      0.094343      4.639327
             8    1       2.128117      2.687932      4.718683
             9    1       4.768832      0.680071      4.781051
            10    1      -0.248856      3.001832      2.567128
            11    0       2.400782      2.332115      7.025845
            12    0      -0.058135      0.298272      6.883280
            13    1       1.905533     -0.046675      7.184616
            14    0       4.785326     -0.089824      7.114557
            15    1       2.546607      4.774094      7.192141
            16    0       4.602769      4.662054      7.319812
            17    0       0.143504      2.737876      9.517111
            18    1       2.624936      2.566763      9.765539
            19    0       2.158924      0.193910      9.603304
            20    0       4.821913      2.176408      9.827318
            21    1      -0.149602      7.672698      1.950979
            22    1       4.381423      9.735515      0.200283
            23    1       2.486369      5.433097      2.358803
            24    0       0.059832      5.263953      2.085470
            25    1       4.767848      5.434860      0.246860
            26    0       2.280336      5.171120      4.590253
            27    0       4.646753      7.366570      4.710507
            28    1       2.445230      7.987282      4.579112
            29    0       0.103558      7.733056      4.700711
            30    1      -0.080398      5.232470      4.521504
            31    0       2.399799      7.810246      2.477726
            32    0       4.618357      5.384100      2.366345
            33    0       2.283134      7.429451      6.914439
            34    0       0.261480      5.313713      7.202229
            35    1       2.519709      7.277790      9.920260
            36    0       0.414685      7.561257      9.513315
            37    0       4.706389      7.465668      9.781334
            38    1       0.430405      5.054366      9.530773
            39    0       6.924557      2.558518      2.049278
            40    0       9.856181      0.455113      2.067131
            41    1       7.013251     -0.024932      1.795492
            42    0       7.324340      0.624001      4.712478
            43    1       7.230315      2.732741      4.477393
            44    1       7.715080      0.900991      2.508451
            45    0       9.697213      3.128204      4.794842
            46    1       9.821958      0.105255      4.739762
            47    1       7.453649      0.135261      6.948657
            48    1       9.725375      2.543305      7.140443
            49    1       6.973297      2.707135      9.583942
            50    0       7.407870      2.590079      7.443289
            51    0       7.350932     -0.045135      9.322588
            52    1       5.426972      2.126951      7.640933
            53    1       7.517015      5.651381      2.123284
            54    1       5.134817      7.619615      2.024379
            55    0       7.250456      5.161683      4.315835
            56    1       7.062940      7.682266      4.312896
            57    1       5.265774      5.043719      4.561500
            58    0       7.666388      7.746210      2.357471
            59    0       7.404234      7.363267      6.632856
            60    1       9.859840      7.749923      6.941432
            61    1       5.323934      7.557170      6.968936
            62    1       8.024592      5.246480      7.128048
            63    0       7.462429      5.200353      9.575395
            64    1       7.063028      7.917546      9.648347
            65    1       9.272232      9.839830      9.610726
 Feature   MV_grade	1.296028
 Feature   ind	6054
END_CFG

BEGIN_CFG
 Size
    65
 Supercell
        10.073288      0.000000      0.000000
         0.000000     10.073288      0.000000
         0.000000      0.000000     10.073288
 AtomData:  id type       cartes_x      cartes_y      cartes_z
             1    0       2.648929      4.603781     -0.136197
             2    0       2.137169      2.515140      2.230132
             3    1       4.261486      2.316863      2.472844
             4    1       1.882418      0.028673      2.125776
             5    0       4.791786     -0.082041      2.439514
             6    0       4.792851      2.917516      4.816760
             7    0       2.330711      0.095814      4.638299
             8    1       2.126054      2.695618      4.737704
             9    1       4.761730      0.697176      4.784037
            10    1      -0.278226      3.011752      2.566804
            11    0       2.399421      2.331493      7.020256
            12    0      -0.061077      0.300380      6.884232
            13    1       1.891572     -0.064261      7.181930
            14    0       4.784563     -0.092872      7.112008
            15    1       2.534108      4.766083      7.201560
            16    0       4.601839      4.658519      7.316546
            17    0       0.141659      2.733390      9.521626
            18    1       2.610176      2.564266      9.769386
            19    0       2.158517      0.188911      9.600202
            20    0       4.824353      2.175413      9.824440
            21    1      -0.148105      7.670424      1.966049
            22    1       4.374523      9.722612      0.191149
            23    1       2.478358      5.431940      2.372025
            24    0       0.058146      5.263538      2.086728
            25    1       4.760114      5.423688      0.267820
            26    0       2.278693      5.173873      4.592721
            27    0       4.650359      7.369192      4.713809
            28    1       2.460608      7.984700      4.570168
            29    0       0.103229      7.733270      4.701053
            30    1      -0.077693      5.237142      4.516054
            31    0       2.402609      7.806071      2.479850
            32    0       4.618987      5.381146      2.366647
            33    0       2.284170      7.426816      6.913678
            34    0       0.258036      5.321335      7.204722
            35    1       2.520754      7.267788      9.931224
            36    0       0.410372      7.561865      9.514581
            37    0       4.710600      7.466272      9.779113
            38    1       0.401947      5.059974      9.504707
            39    0       6.918597      2.557759      2.047983
            40    0       9.855527      0.456837      2.067966
            41    1       7.013534     -0.028725      1.784179
            42    0       7.319875      0.623220      4.716924
            43    1       7.243680      2.741445      4.499674
            44    1       7.706471      0.890609      2.512028
            45    0       9.695410      3.130071      4.801090
            46    1       9.815083      0.118150      4.732660
            47    1       7.454384      0.119098      6.950847
            48    1       9.727565      2.554161      7.128602
            49    1       6.974789      2.707849      9.575259
            50    0       7.407268      2.591660      7.441344
            51    0       7.352809     -0.044004      9.320692
            52    1       5.439950      2.134264      7.637906
            53    1       7.508978      5.637364      2.113511
            54    1       5.115012      7.614136      2.021810